d 1.0000 6 -2 cbr 210 ------- 0 6.0 67.0 0 0 -106.36 0.06 -999.00 -999.00
+ 61.0100 6 7 cbr 210 ------- 0 6.0 67.0 1 1 -106.36 3.39 -139.09 3.39
- 61.0100 6 7 cbr 210 ------- 0 6.0 67.0 1 1 -106.36 3.39 -139.09 3.39
r 61.0253 6 7 cbr 210 ------- 0 6.0 67.0 1 1 -106.36 3.39 -139.09 3.39
+ 61.0253 7 8 cbr 210 ------- 0 6.0 67.0 1 1 -139.09 3.39 -171.82 3.39
- 61.0253 7 8 cbr 210 ------- 0 6.0 67.0 1 1 -139.09 3.39 -171.82 3.39
r 61.0405 7 8 cbr 210 ------- 0 6.0 67.0 1 1 -139.09 3.39 -171.82 3.39
+ 61.0405 8 9 cbr 210 ------- 0 6.0 67.0 1 1 -171.82 3.39 -204.55 3.39
- 61.0405 8 9 cbr 210 ------- 0 6.0 67.0 1 1 -171.82 3.39 -204.55 3.39
r 61.0558 8 9 cbr 210 ------- 0 6.0 67.0 1 1 -171.82 3.39 -204.55 3.39
+ 61.0558 9 10 cbr 210 ------- 0 6.0 67.0 1 1 -204.55 3.39 -237.27 3.39
- 61.0558 9 10 cbr 210 ------- 0 6.0 67.0 1 1 -204.55 3.39 -237.27 3.39
r 61.0710 9 10 cbr 210 ------- 0 6.0 67.0 1 1 -204.55 3.39 -237.27 3.39
+ 61.0710 10 0 cbr 210 ------- 0 6.0 67.0 1 1 -237.27 3.39 90.00 3.39
- 61.0710 10 0 cbr 210 ------- 0 6.0 67.0 1 1 -237.27 3.39 90.00 3.39
r 61.0863 10 0 cbr 210 ------- 0 6.0 67.0 1 1 -237.27 3.39 90.00 3.39
+ 61.0863 0 67 cbr 210 ------- 0 6.0 67.0 1 1 90.00 3.39 27.32 101.46
- 61.0863 0 67 cbr 210 ------- 0 6.0 67.0 1 1 90.00 3.39 27.32 101.46
r 61.1111 0 67 cbr 210 ------- 0 6.0 67.0 1 1 90.00 3.39 27.32 101.46
+ 121.0200 6 7 cbr 210 ------- 0 6.0 67.0 2 2 -106.36 6.72 -139.09 6.72
- 121.0200 6 7 cbr 210 ------- 0 6.0 67.0 2 2 -106.36 6.72 -139.09 6.72
r 121.0353 6 7 cbr 210 ------- 0 6.0 67.0 2 2 -106.36 6.72 -139.09 6.72
+ 121.0353 7 8 cbr 210 ------- 0 6.0 67.0 2 2 -139.09 6.72 -171.82 6.72
- 121.0353 7 8 cbr 210 ------- 0 6.0 67.0 2 2 -139.09 6.72 -171.82 6.72
r 121.0505 7 8 cbr 210 ------- 0 6.0 67.0 2 2 -139.09 6.72 -171.82 6.72
+ 121.0505 8 9 cbr 210 ------- 0 6.0 67.0 2 2 -171.82 6.72 -204.55 6.72
- 121.0505 8 9 cbr 210 ------- 0 6.0 67.0 2 2 -171.82 6.72 -204.55 6.72
r 121.0658 8 9 cbr 210 ------- 0 6.0 67.0 2 2 -171.82 6.73 -204.55 6.73
+ 121.0658 9 10 cbr 210 ------- 0 6.0 67.0 2 2 -204.55 6.73 -237.27 6.73
- 121.0658 9 10 cbr 210 ------- 0 6.0 67.0 2 2 -204.55 6.73 -237.27 6.73
r 121.0810 9 10 cbr 210 ------- 0 6.0 67.0 2 2 -204.55 6.73 -237.27 6.73
+ 121.0810 10 0 cbr 210 ------- 0 6.0 67.0 2 2 -237.27 6.73 90.00 6.73
- 121.0810 10 0 cbr 210 ------- 0 6.0 67.0 2 2 -237.27 6.73 90.00 6.73
r 121.0963 10 0 cbr 210 ------- 0 6.0 67.0 2 2 -237.27 6.73 90.00 6.73
+ 121.0963 0 67 cbr 210 ------- 0 6.0 67.0 2 2 90.00 6.73 27.32 101.46
- 121.0963 0 67 cbr 210 ------- 0 6.0 67.0 2 2 90.00 6.73 27.32 101.46
r 121.1211 0 67 cbr 210 ------- 0 6.0 67.0 2 2 90.00 6.73 27.32 101.46
+ 181.0300 6 7 cbr 210 ------- 0 6.0 67.0 3 3 -106.36 10.06 -139.09 10.06
- 181.0300 6 7 cbr 210 ------- 0 6.0 67.0 3 3 -106.36 10.06 -139.09 10.06
r 181.0453 6 7 cbr 210 ------- 0 6.0 67.0 3 3 -106.36 10.06 -139.09 10.06
+ 181.0453 7 8 cbr 210 ------- 0 6.0 67.0 3 3 -139.09 10.06 -171.82 10.06
- 181.0453 7 8 cbr 210 ------- 0 6.0 67.0 3 3 -139.09 10.06 -171.82 10.06
r 181.0605 7 8 cbr 210 ------- 0 6.0 67.0 3 3 -139.09 10.06 -171.82 10.06
+ 181.0605 8 9 cbr 210 ------- 0 6.0 67.0 3 3 -171.82 10.06 -204.55 10.06
- 181.0605 8 9 cbr 210 ------- 0 6.0 67.0 3 3 -171.82 10.06 -204.55 10.06
r 181.0758 8 9 cbr 210 ------- 0 6.0 67.0 3 3 -171.82 10.06 -204.55 10.06
+ 181.0758 9 10 cbr 210 ------- 0 6.0 67.0 3 3 -204.55 10.06 -237.27 10.06
- 181.0758 9 10 cbr 210 ------- 0 6.0 67.0 3 3 -204.55 10.06 -237.27 10.06
r 181.0910 9 10 cbr 210 ------- 0 6.0 67.0 3 3 -204.55 10.06 -237.27 10.06
+ 181.0910 10 0 cbr 210 ------- 0 6.0 67.0 3 3 -237.27 10.06 90.00 10.06
- 181.0910 10 0 cbr 210 ------- 0 6.0 67.0 3 3 -237.27 10.06 90.00 10.06
r 181.1063 10 0 cbr 210 ------- 0 6.0 67.0 3 3 -237.27 10.06 90.00 10.06
+ 181.1063 0 67 cbr 210 ------- 0 6.0 67.0 3 3 90.00 10.06 27.32 101.46
- 181.1063 0 67 cbr 210 ------- 0 6.0 67.0 3 3 90.00 10.06 27.32 101.46
r 181.1311 0 67 cbr 210 ------- 0 6.0 67.0 3 3 90.00 10.06 27.32 101.46
+ 241.0400 6 7 cbr 210 ------- 0 6.0 67.0 4 4 -106.36 13.39 -139.09 13.39
- 241.0400 6 7 cbr 210 ------- 0 6.0 67.0 4 4 -106.36 13.39 -139.09 13.39
r 241.0553 6 7 cbr 210 ------- 0 6.0 67.0 4 4 -106.36 13.39 -139.09 13.39
+ 241.0553 7 8 cbr 210 ------- 0 6.0 67.0 4 4 -139.09 13.39 -171.82 13.39
- 241.0553 7 8 cbr 210 ------- 0 6.0 67.0 4 4 -139.09 13.39 -171.82 13.39
r 241.0705 7 8 cbr 210 ------- 0 6.0 67.0 4 4 -139.09 13.39 -171.82 13.39
+ 241.0705 8 9 cbr 210 ------- 0 6.0 67.0 4 4 -171.82 13.39 -204.55 13.39
- 241.0705 8 9 cbr 210 ------- 0 6.0 67.0 4 4 -171.82 13.39 -204.55 13.39
r 241.0858 8 9 cbr 210 ------- 0 6.0 67.0 4 4 -171.82 13.39 -204.55 13.39
+ 241.0858 9 10 cbr 210 ------- 0 6.0 67.0 4 4 -204.55 13.39 -237.27 13.39
- 241.0858 9 10 cbr 210 ------- 0 6.0 67.0 4 4 -204.55 13.39 -237.27 13.39
r 241.1010 9 10 cbr 210 ------- 0 6.0 67.0 4 4 -204.55 13.39 -237.27 13.39
+ 241.1010 10 0 cbr 210 ------- 0 6.0 67.0 4 4 -237.27 13.39 90.00 13.39
- 241.1010 10 0 cbr 210 ------- 0 6.0 67.0 4 4 -237.27 13.39 90.00 13.39
r 241.1163 10 0 cbr 210 ------- 0 6.0 67.0 4 4 -237.27 13.39 90.00 13.39
+ 241.1163 0 67 cbr 210 ------- 0 6.0 67.0 4 4 90.00 13.39 27.32 101.46
- 241.1163 0 67 cbr 210 ------- 0 6.0 67.0 4 4 90.00 13.39 27.32 101.46
r 241.1411 0 67 cbr 210 ------- 0 6.0 67.0 4 4 90.00 13.40 27.32 101.46
+ 301.0500 6 7 cbr 210 ------- 0 6.0 67.0 5 5 -106.36 16.72 -139.09 16.72
- 301.0500 6 7 cbr 210 ------- 0 6.0 67.0 5 5 -106.36 16.72 -139.09 16.72
r 301.0653 6 7 cbr 210 ------- 0 6.0 67.0 5 5 -106.36 16.73 -139.09 16.73
+ 301.0653 7 8 cbr 210 ------- 0 6.0 67.0 5 5 -139.09 16.73 -171.82 16.73
- 301.0653 7 8 cbr 210 ------- 0 6.0 67.0 5 5 -139.09 16.73 -171.82 16.73
r 301.0805 7 8 cbr 210 ------- 0 6.0 67.0 5 5 -139.09 16.73 -171.82 16.73
+ 301.0805 8 9 cbr 210 ------- 0 6.0 67.0 5 5 -171.82 16.73 -204.55 16.73
- 301.0805 8 9 cbr 210 ------- 0 6.0 67.0 5 5 -171.82 16.73 -204.55 16.73
r 301.0958 8 9 cbr 210 ------- 0 6.0 67.0 5 5 -171.82 16.73 -204.55 16.73
+ 301.0958 9 10 cbr 210 ------- 0 6.0 67.0 5 5 -204.55 16.73 -237.27 16.73
- 301.0958 9 10 cbr 210 ------- 0 6.0 67.0 5 5 -204.55 16.73 -237.27 16.73
r 301.1110 9 10 cbr 210 ------- 0 6.0 67.0 5 5 -204.55 16.73 -237.27 16.73
+ 301.1110 10 0 cbr 210 ------- 0 6.0 67.0 5 5 -237.27 16.73 90.00 16.73
- 301.1110 10 0 cbr 210 ------- 0 6.0 67.0 5 5 -237.27 16.73 90.00 16.73
r 301.1263 10 0 cbr 210 ------- 0 6.0 67.0 5 5 -237.27 16.73 90.00 16.73
+ 301.1263 0 67 cbr 210 ------- 0 6.0 67.0 5 5 90.00 16.73 27.32 101.46
- 301.1263 0 67 cbr 210 ------- 0 6.0 67.0 5 5 90.00 16.73 27.32 101.46
r 301.1511 0 67 cbr 210 ------- 0 6.0 67.0 5 5 90.00 16.73 27.32 101.46
+ 361.0600 6 5 cbr 210 ------- 0 6.0 67.0 6 6 -106.36 20.06 -73.64 20.06
- 361.0600 6 5 cbr 210 ------- 0 6.0 67.0 6 6 -106.36 20.06 -73.64 20.06
r 361.0753 6 5 cbr 210 ------- 0 6.0 67.0 6 6 -106.36 20.06 -73.64 20.06
+ 361.0753 5 4 cbr 210 ------- 0 6.0 67.0 6 6 -73.64 20.06 -40.91 20.06
- 361.0753 5 4 cbr 210 ------- 0 6.0 67.0 6 6 -73.64 20.06 -40.91 20.06
r 361.0905 5 4 cbr 210 ------- 0 6.0 67.0 6 6 -73.64 20.06 -40.91 20.06
+ 361.0905 4 15 cbr 210 ------- 0 6.0 67.0 6 6 -40.91 20.06 -57.27 51.66
- 361.0905 4 15 cbr 210 ------- 0 6.0 67.0 6 6 -40.91 20.06 -57.27 51.66
r 361.1031 4 15 cbr 210 ------- 0 6.0 67.0 6 6 -40.91 20.06 -57.27 51.66
+ 361.1031 15 26 cbr 210 ------- 0 6.0 67.0 6 6 -57.27 51.66 -40.91 83.26
- 361.1031 15 26 cbr 210 ------- 0 6.0 67.0 6 6 -57.27 51.66 -40.91 83.26
r 361.1156 15 26 cbr 210 ------- 0 6.0 67.0 6 6 -57.27 51.66 -40.91 83.26
+ 361.1156 26 25 cbr 210 ------- 0 6.0 67.0 6 6 -40.91 83.26 -8.18 83.26
- 361.1156 26 25 cbr 210 ------- 0 6.0 67.0 6 6 -40.91 83.26 -8.18 83.26
r 361.1309 26 25 cbr 210 ------- 0 6.0 67.0 6 6 -40.91 83.26 -8.18 83.26
+ 361.1309 25 24 cbr 210 ------- 0 6.0 67.0 6 6 -8.18 83.26 24.55 83.26
- 361.1309 25 24 cbr 210 ------- 0 6.0 67.0 6 6 -8.18 83.26 24.55 83.26
r 361.1461 25 24 cbr 210 ------- 0 6.0 67.0 6 6 -8.18 83.26 24.55 83.26
+ 361.1461 24 67 cbr 210 ------- 0 6.0 67.0 6 6 24.55 83.26 27.32 101.46
- 361.1461 24 67 cbr 210 ------- 0 6.0 67.0 6 6 24.55 83.26 27.32 101.46
r 361.1543 24 67 cbr 210 ------- 0 6.0 67.0 6 6 24.55 83.26 27.32 101.46
+ 421.0700 6 5 cbr 210 ------- 0 6.0 67.0 7 7 -106.36 23.39 -73.64 23.39
- 421.0700 6 5 cbr 210 ------- 0 6.0 67.0 7 7 -106.36 23.39 -73.64 23.39
r 421.0853 6 5 cbr 210 ------- 0 6.0 67.0 7 7 -106.36 23.39 -73.64 23.39
+ 421.0853 5 4 cbr 210 ------- 0 6.0 67.0 7 7 -73.64 23.39 -40.91 23.39
- 421.0853 5 4 cbr 210 ------- 0 6.0 67.0 7 7 -73.64 23.39 -40.91 23.39
r 421.1005 5 4 cbr 210 ------- 0 6.0 67.0 7 7 -73.64 23.39 -40.91 23.39
+ 421.1005 4 15 cbr 210 ------- 0 6.0 67.0 7 7 -40.91 23.39 -57.27 54.99
- 421.1005 4 15 cbr 210 ------- 0 6.0 67.0 7 7 -40.91 23.39 -57.27 54.99
r 421.1131 4 15 cbr 210 ------- 0 6.0 67.0 7 7 -40.91 23.39 -57.27 54.99
+ 421.1131 15 26 cbr 210 ------- 0 6.0 67.0 7 7 -57.27 54.99 -40.91 86.59
- 421.1131 15 26 cbr 210 ------- 0 6.0 67.0 7 7 -57.27 54.99 -40.91 86.59
r 421.1256 15 26 cbr 210 ------- 0 6.0 67.0 7 7 -57.27 55.00 -40.91 86.60
+ 421.1256 26 25 cbr 210 ------- 0 6.0 67.0 7 7 -40.91 86.60 -8.18 86.60
- 421.1256 26 25 cbr 210 ------- 0 6.0 67.0 7 7 -40.91 86.60 -8.18 86.60
r 421.1409 26 25 cbr 210 ------- 0 6.0 67.0 7 7 -40.91 86.60 -8.18 86.60
+ 421.1409 25 24 cbr 210 ------- 0 6.0 67.0 7 7 -8.18 86.60 24.55 86.60
- 421.1409 25 24 cbr 210 ------- 0 6.0 67.0 7 7 -8.18 86.60 24.55 86.60
r 421.1561 25 24 cbr 210 ------- 0 6.0 67.0 7 7 -8.18 86.60 24.55 86.60
+ 421.1561 24 67 cbr 210 ------- 0 6.0 67.0 7 7 24.55 86.60 27.32 101.46
- 421.1561 24 67 cbr 210 ------- 0 6.0 67.0 7 7 24.55 86.60 27.32 101.46
r 421.1633 24 67 cbr 210 ------- 0 6.0 67.0 7 7 24.55 86.60 27.32 101.46
+ 481.0800 6 5 cbr 210 ------- 0 6.0 67.0 8 8 -106.36 26.73 -73.64 26.73
- 481.0800 6 5 cbr 210 ------- 0 6.0 67.0 8 8 -106.36 26.73 -73.64 26.73
r 481.0953 6 5 cbr 210 ------- 0 6.0 67.0 8 8 -106.36 26.73 -73.64 26.73
+ 481.0953 5 4 cbr 210 ------- 0 6.0 67.0 8 8 -73.64 26.73 -40.91 26.73
- 481.0953 5 4 cbr 210 ------- 0 6.0 67.0 8 8 -73.64 26.73 -40.91 26.73
r 481.1105 5 4 cbr 210 ------- 0 6.0 67.0 8 8 -73.64 26.73 -40.91 26.73
+ 481.1105 4 15 cbr 210 ------- 0 6.0 67.0 8 8 -40.91 26.73 -57.27 58.33
- 481.1105 4 15 cbr 210 ------- 0 6.0 67.0 8 8 -40.91 26.73 -57.27 58.33
r 481.1231 4 15 cbr 210 ------- 0 6.0 67.0 8 8 -40.91 26.73 -57.27 58.33
+ 481.1231 15 26 cbr 210 ------- 0 6.0 67.0 8 8 -57.27 58.33 -40.91 89.93
- 481.1231 15 26 cbr 210 ------- 0 6.0 67.0 8 8 -57.27 58.33 -40.91 89.93
r 481.1356 15 26 cbr 210 ------- 0 6.0 67.0 8 8 -57.27 58.33 -40.91 89.93
+ 481.1356 26 25 cbr 210 ------- 0 6.0 67.0 8 8 -40.91 89.93 -8.18 89.93
- 481.1356 26 25 cbr 210 ------- 0 6.0 67.0 8 8 -40.91 89.93 -8.18 89.93
r 481.1509 26 25 cbr 210 ------- 0 6.0 67.0 8 8 -40.91 89.93 -8.18 89.93
+ 481.1509 25 24 cbr 210 ------- 0 6.0 67.0 8 8 -8.18 89.93 24.55 89.93
- 481.1509 25 24 cbr 210 ------- 0 6.0 67.0 8 8 -8.18 89.93 24.55 89.93
r 481.1661 25 24 cbr 210 ------- 0 6.0 67.0 8 8 -8.18 89.93 24.55 89.93
+ 481.1661 24 67 cbr 210 ------- 0 6.0 67.0 8 8 24.55 89.93 27.32 101.46
- 481.1661 24 67 cbr 210 ------- 0 6.0 67.0 8 8 24.55 89.93 27.32 101.46
r 481.1723 24 67 cbr 210 ------- 0 6.0 67.0 8 8 24.55 89.93 27.32 101.46
+ 541.0900 6 5 cbr 210 ------- 0 6.0 67.0 9 9 -106.36 30.06 -73.64 30.06
- 541.0900 6 5 cbr 210 ------- 0 6.0 67.0 9 9 -106.36 30.06 -73.64 30.06
r 541.1053 6 5 cbr 210 ------- 0 6.0 67.0 9 9 -106.36 30.06 -73.64 30.06
+ 541.1053 5 4 cbr 210 ------- 0 6.0 67.0 9 9 -73.64 30.06 -40.91 30.06
- 541.1053 5 4 cbr 210 ------- 0 6.0 67.0 9 9 -73.64 30.06 -40.91 30.06
r 541.1205 5 4 cbr 210 ------- 0 6.0 67.0 9 9 -73.64 30.06 -40.91 30.06
+ 541.1205 4 15 cbr 210 ------- 0 6.0 67.0 9 9 -40.91 30.06 -57.27 61.66
- 541.1205 4 15 cbr 210 ------- 0 6.0 67.0 9 9 -40.91 30.06 -57.27 61.66
r 541.1331 4 15 cbr 210 ------- 0 6.0 67.0 9 9 -40.91 30.06 -57.27 61.66
+ 541.1331 15 26 cbr 210 ------- 0 6.0 67.0 9 9 -57.27 61.66 -40.91 93.26
- 541.1331 15 26 cbr 210 ------- 0 6.0 67.0 9 9 -57.27 61.66 -40.91 93.26
r 541.1456 15 26 cbr 210 ------- 0 6.0 67.0 9 9 -57.27 61.66 -40.91 93.26
+ 541.1456 26 25 cbr 210 ------- 0 6.0 67.0 9 9 -40.91 93.26 -8.18 93.26
- 541.1456 26 25 cbr 210 ------- 0 6.0 67.0 9 9 -40.91 93.26 -8.18 93.26
r 541.1609 26 25 cbr 210 ------- 0 6.0 67.0 9 9 -40.91 93.26 -8.18 93.26
+ 541.1609 25 24 cbr 210 ------- 0 6.0 67.0 9 9 -8.18 93.26 24.55 93.26
- 541.1609 25 24 cbr 210 ------- 0 6.0 67.0 9 9 -8.18 93.26 24.55 93.26
r 541.1761 25 24 cbr 210 ------- 0 6.0 67.0 9 9 -8.18 93.26 24.55 93.26
+ 541.1761 24 67 cbr 210 ------- 0 6.0 67.0 9 9 24.55 93.26 27.32 101.46
- 541.1761 24 67 cbr 210 ------- 0 6.0 67.0 9 9 24.55 93.26 27.32 101.46
r 541.1814 24 67 cbr 210 ------- 0 6.0 67.0 9 9 24.55 93.26 27.32 101.46
+ 601.1000 6 5 cbr 210 ------- 0 6.0 67.0 10 10 -106.36 33.39 -73.64 33.39
- 601.1000 6 5 cbr 210 ------- 0 6.0 67.0 10 10 -106.36 33.39 -73.64 33.39
r 601.1153 6 5 cbr 210 ------- 0 6.0 67.0 10 10 -106.36 33.39 -73.64 33.39
+ 601.1153 5 4 cbr 210 ------- 0 6.0 67.0 10 10 -73.64 33.39 -40.91 33.39
- 601.1153 5 4 cbr 210 ------- 0 6.0 67.0 10 10 -73.64 33.39 -40.91 33.39
r 601.1305 5 4 cbr 210 ------- 0 6.0 67.0 10 10 -73.64 33.39 -40.91 33.39
+ 601.1305 4 15 cbr 210 ------- 0 6.0 67.0 10 10 -40.91 33.39 -57.27 64.99
- 601.1305 4 15 cbr 210 ------- 0 6.0 67.0 10 10 -40.91 33.39 -57.27 64.99
r 601.1431 4 15 cbr 210 ------- 0 6.0 67.0 10 10 -40.91 33.40 -57.27 65.00
+ 601.1431 15 26 cbr 210 ------- 0 6.0 67.0 10 10 -57.27 65.00 -40.91 96.60
- 601.1431 15 26 cbr 210 ------- 0 6.0 67.0 10 10 -57.27 65.00 -40.91 96.60
r 601.1556 15 26 cbr 210 ------- 0 6.0 67.0 10 10 -57.27 65.00 -40.91 96.60
+ 601.1556 26 25 cbr 210 ------- 0 6.0 67.0 10 10 -40.91 96.60 -8.18 96.60
- 601.1556 26 25 cbr 210 ------- 0 6.0 67.0 10 10 -40.91 96.60 -8.18 96.60
r 601.1709 26 25 cbr 210 ------- 0 6.0 67.0 10 10 -40.91 96.60 -8.18 96.60
+ 601.1709 25 24 cbr 210 ------- 0 6.0 67.0 10 10 -8.18 96.60 24.55 96.60
- 601.1709 25 24 cbr 210 ------- 0 6.0 67.0 10 10 -8.18 96.60 24.55 96.60
r 601.1861 25 24 cbr 210 ------- 0 6.0 67.0 10 10 -8.18 96.60 24.55 96.60
+ 601.1861 24 67 cbr 210 ------- 0 6.0 67.0 10 10 24.55 96.60 27.32 101.46
- 601.1861 24 67 cbr 210 ------- 0 6.0 67.0 10 10 24.55 96.60 27.32 101.46
r 601.1906 24 67 cbr 210 ------- 0 6.0 67.0 10 10 24.55 96.60 27.32 101.46
+ 661.1100 6 5 cbr 210 ------- 0 6.0 67.0 11 11 -106.36 36.73 -73.64 36.73
- 661.1100 6 5 cbr 210 ------- 0 6.0 67.0 11 11 -106.36 36.73 -73.64 36.73
r 661.1253 6 5 cbr 210 ------- 0 6.0 67.0 11 11 -106.36 36.73 -73.64 36.73
+ 661.1253 5 4 cbr 210 ------- 0 6.0 67.0 11 11 -73.64 36.73 -40.91 36.73
- 661.1253 5 4 cbr 210 ------- 0 6.0 67.0 11 11 -73.64 36.73 -40.91 36.73
r 661.1405 5 4 cbr 210 ------- 0 6.0 67.0 11 11 -73.64 36.73 -40.91 36.73
+ 661.1405 4 15 cbr 210 ------- 0 6.0 67.0 11 11 -40.91 36.73 -57.27 68.33
- 661.1405 4 15 cbr 210 ------- 0 6.0 67.0 11 11 -40.91 36.73 -57.27 68.33
r 661.1531 4 15 cbr 210 ------- 0 6.0 67.0 11 11 -40.91 36.73 -57.27 68.33
+ 661.1531 15 26 cbr 210 ------- 0 6.0 67.0 11 11 -57.27 68.33 -40.91 99.93
- 661.1531 15 26 cbr 210 ------- 0 6.0 67.0 11 11 -57.27 68.33 -40.91 99.93
r 661.1656 15 26 cbr 210 ------- 0 6.0 67.0 11 11 -57.27 68.33 -40.91 99.93
+ 661.1656 26 25 cbr 210 ------- 0 6.0 67.0 11 11 -40.91 99.93 -8.18 99.93
- 661.1656 26 25 cbr 210 ------- 0 6.0 67.0 11 11 -40.91 99.93 -8.18 99.93
r 661.1809 26 25 cbr 210 ------- 0 6.0 67.0 11 11 -40.91 99.93 -8.18 99.93
+ 661.1809 25 24 cbr 210 ------- 0 6.0 67.0 11 11 -8.18 99.93 24.55 99.93
- 661.1809 25 24 cbr 210 ------- 0 6.0 67.0 11 11 -8.18 99.93 24.55 99.93
r 661.1961 25 24 cbr 210 ------- 0 6.0 67.0 11 11 -8.18 99.93 24.55 99.93
+ 661.1961 24 67 cbr 210 ------- 0 6.0 67.0 11 11 24.55 99.93 27.32 101.46
- 661.1961 24 67 cbr 210 ------- 0 6.0 67.0 11 11 24.55 99.93 27.32 101.46
r 661.2002 24 67 cbr 210 ------- 0 6.0 67.0 11 11 24.55 99.93 27.32 101.46
+ 721.1200 6 5 cbr 210 ------- 0 6.0 67.0 12 12 -106.36 40.06 -73.64 40.06
- 721.1200 6 5 cbr 210 ------- 0 6.0 67.0 12 12 -106.36 40.06 -73.64 40.06
r 721.1353 6 5 cbr 210 ------- 0 6.0 67.0 12 12 -106.36 40.06 -73.64 40.06
+ 721.1353 5 4 cbr 210 ------- 0 6.0 67.0 12 12 -73.64 40.06 -40.91 40.06
- 721.1353 5 4 cbr 210 ------- 0 6.0 67.0 12 12 -73.64 40.06 -40.91 40.06
r 721.1505 5 4 cbr 210 ------- 0 6.0 67.0 12 12 -73.64 40.06 -40.91 40.06
+ 721.1505 4 15 cbr 210 ------- 0 6.0 67.0 12 12 -40.91 40.06 -57.27 71.66
- 721.1505 4 15 cbr 210 ------- 0 6.0 67.0 12 12 -40.91 40.06 -57.27 71.66
r 721.1631 4 15 cbr 210 ------- 0 6.0 67.0 12 12 -40.91 40.06 -57.27 71.66
+ 721.1631 15 26 cbr 210 ------- 0 6.0 67.0 12 12 -57.27 71.66 -40.91 103.26
- 721.1631 15 26 cbr 210 ------- 0 6.0 67.0 12 12 -57.27 71.66 -40.91 103.26
r 721.1756 15 26 cbr 210 ------- 0 6.0 67.0 12 12 -57.27 71.66 -40.91 103.26
+ 721.1756 26 25 cbr 210 ------- 0 6.0 67.0 12 12 -40.91 103.26 -8.18 103.26
- 721.1756 26 25 cbr 210 ------- 0 6.0 67.0 12 12 -40.91 103.26 -8.18 103.26
r 721.1909 26 25 cbr 210 ------- 0 6.0 67.0 12 12 -40.91 103.26 -8.18 103.26
+ 721.1909 25 24 cbr 210 ------- 0 6.0 67.0 12 12 -8.18 103.26 24.55 103.26
- 721.1909 25 24 cbr 210 ------- 0 6.0 67.0 12 12 -8.18 103.26 24.55 103.26
r 721.2061 25 24 cbr 210 ------- 0 6.0 67.0 12 12 -8.18 103.27 24.55 103.27
+ 721.2061 24 67 cbr 210 ------- 0 6.0 67.0 12 12 24.55 103.27 27.32 101.46
- 721.2061 24 67 cbr 210 ------- 0 6.0 67.0 12 12 24.55 103.27 27.32 101.46
r 721.2102 24 67 cbr 210 ------- 0 6.0 67.0 12 12 24.55 103.27 27.32 101.46
+ 781.1300 6 5 cbr 210 ------- 0 6.0 67.0 13 13 -106.36 43.39 -73.64 43.39
- 781.1300 6 5 cbr 210 ------- 0 6.0 67.0 13 13 -106.36 43.39 -73.64 43.39
r 781.1453 6 5 cbr 210 ------- 0 6.0 67.0 13 13 -106.36 43.40 -73.64 43.40
+ 781.1453 5 4 cbr 210 ------- 0 6.0 67.0 13 13 -73.64 43.40 -40.91 43.40
- 781.1453 5 4 cbr 210 ------- 0 6.0 67.0 13 13 -73.64 43.40 -40.91 43.40
r 781.1605 5 4 cbr 210 ------- 0 6.0 67.0 13 13 -73.64 43.40 -40.91 43.40
+ 781.1605 4 15 cbr 210 ------- 0 6.0 67.0 13 13 -40.91 43.40 -57.27 75.00
- 781.1605 4 15 cbr 210 ------- 0 6.0 67.0 13 13 -40.91 43.40 -57.27 75.00
r 781.1731 4 15 cbr 210 ------- 0 6.0 67.0 13 13 -40.91 43.40 -57.27 75.00
+ 781.1731 15 26 cbr 210 ------- 0 6.0 67.0 13 13 -57.27 75.00 -40.91 106.60
- 781.1731 15 26 cbr 210 ------- 0 6.0 67.0 13 13 -57.27 75.00 -40.91 106.60
r 781.1856 15 26 cbr 210 ------- 0 6.0 67.0 13 13 -57.27 75.00 -40.91 106.60
+ 781.1856 26 25 cbr 210 ------- 0 6.0 67.0 13 13 -40.91 106.60 -8.18 106.60
- 781.1856 26 25 cbr 210 ------- 0 6.0 67.0 13 13 -40.91 106.60 -8.18 106.60
r 781.2009 26 25 cbr 210 ------- 0 6.0 67.0 13 13 -40.91 106.60 -8.18 106.60
+ 781.2009 25 24 cbr 210 ------- 0 6.0 67.0 13 13 -8.18 106.60 24.55 106.60
- 781.2009 25 24 cbr 210 ------- 0 6.0 67.0 13 13 -8.18 106.60 24.55 106.60
r 781.2161 25 24 cbr 210 ------- 0 6.0 67.0 13 13 -8.18 106.60 24.55 106.60
+ 781.2161 24 67 cbr 210 ------- 0 6.0 67.0 13 13 24.55 106.60 27.32 101.46
- 781.2161 24 67 cbr 210 ------- 0 6.0 67.0 13 13 24.55 106.60 27.32 101.46
r 781.2207 24 67 cbr 210 ------- 0 6.0 67.0 13 13 24.55 106.60 27.32 101.46
+ 841.1400 6 5 cbr 210 ------- 0 6.0 67.0 14 14 -106.36 46.73 -73.64 46.73
- 841.1400 6 5 cbr 210 ------- 0 6.0 67.0 14 14 -106.36 46.73 -73.64 46.73
r 841.1553 6 5 cbr 210 ------- 0 6.0 67.0 14 14 -106.36 46.73 -73.64 46.73
+ 841.1553 5 4 cbr 210 ------- 0 6.0 67.0 14 14 -73.64 46.73 -40.91 46.73
- 841.1553 5 4 cbr 210 ------- 0 6.0 67.0 14 14 -73.64 46.73 -40.91 46.73
r 841.1705 5 4 cbr 210 ------- 0 6.0 67.0 14 14 -73.64 46.73 -40.91 46.73
+ 841.1705 4 15 cbr 210 ------- 0 6.0 67.0 14 14 -40.91 46.73 -57.27 78.33
- 841.1705 4 15 cbr 210 ------- 0 6.0 67.0 14 14 -40.91 46.73 -57.27 78.33
r 841.1831 4 15 cbr 210 ------- 0 6.0 67.0 14 14 -40.91 46.73 -57.27 78.33
+ 841.1831 15 26 cbr 210 ------- 0 6.0 67.0 14 14 -57.27 78.33 -40.91 109.93
- 841.1831 15 26 cbr 210 ------- 0 6.0 67.0 14 14 -57.27 78.33 -40.91 109.93
r 841.1956 15 26 cbr 210 ------- 0 6.0 67.0 14 14 -57.27 78.33 -40.91 109.93
+ 841.1956 26 25 cbr 210 ------- 0 6.0 67.0 14 14 -40.91 109.93 -8.18 109.93
- 841.1956 26 25 cbr 210 ------- 0 6.0 67.0 14 14 -40.91 109.93 -8.18 109.93
r 841.2109 26 25 cbr 210 ------- 0 6.0 67.0 14 14 -40.91 109.93 -8.18 109.93
+ 841.2109 25 24 cbr 210 ------- 0 6.0 67.0 14 14 -8.18 109.93 24.55 109.93
- 841.2109 25 24 cbr 210 ------- 0 6.0 67.0 14 14 -8.18 109.93 24.55 109.93
r 841.2261 25 24 cbr 210 ------- 0 6.0 67.0 14 14 -8.18 109.93 24.55 109.93
+ 841.2261 24 67 cbr 210 ------- 0 6.0 67.0 14 14 24.55 109.93 27.32 101.46
- 841.2261 24 67 cbr 210 ------- 0 6.0 67.0 14 14 24.55 109.93 27.32 101.46
r 841.2315 24 67 cbr 210 ------- 0 6.0 67.0 14 14 24.55 109.93 27.32 101.46
+ 901.1500 6 5 cbr 210 ------- 0 6.0 67.0 15 15 -106.36 50.06 -73.64 50.06
- 901.1500 6 5 cbr 210 ------- 0 6.0 67.0 15 15 -106.36 50.06 -73.64 50.06
r 901.1653 6 5 cbr 210 ------- 0 6.0 67.0 15 15 -106.36 50.06 -73.64 50.06
+ 901.1653 5 4 cbr 210 ------- 0 6.0 67.0 15 15 -73.64 50.06 -40.91 50.06
- 901.1653 5 4 cbr 210 ------- 0 6.0 67.0 15 15 -73.64 50.06 -40.91 50.06
r 901.1805 5 4 cbr 210 ------- 0 6.0 67.0 15 15 -73.64 50.06 -40.91 50.06
+ 901.1805 4 15 cbr 210 ------- 0 6.0 67.0 15 15 -40.91 50.06 -57.27 81.66
- 901.1805 4 15 cbr 210 ------- 0 6.0 67.0 15 15 -40.91 50.06 -57.27 81.66
r 901.1931 4 15 cbr 210 ------- 0 6.0 67.0 15 15 -40.91 50.06 -57.27 81.66
+ 901.1931 15 26 cbr 210 ------- 0 6.0 67.0 15 15 -57.27 81.66 -40.91 113.26
- 901.1931 15 26 cbr 210 ------- 0 6.0 67.0 15 15 -57.27 81.66 -40.91 113.26
r 901.2056 15 26 cbr 210 ------- 0 6.0 67.0 15 15 -57.27 81.67 -40.91 113.27
+ 901.2056 26 25 cbr 210 ------- 0 6.0 67.0 15 15 -40.91 113.27 -8.18 113.27
- 901.2056 26 25 cbr 210 ------- 0 6.0 67.0 15 15 -40.91 113.27 -8.18 113.27
r 901.2209 26 25 cbr 210 ------- 0 6.0 67.0 15 15 -40.91 113.27 -8.18 113.27
+ 901.2209 25 24 cbr 210 ------- 0 6.0 67.0 15 15 -8.18 113.27 24.55 113.27
- 901.2209 25 24 cbr 210 ------- 0 6.0 67.0 15 15 -8.18 113.27 24.55 113.27
r 901.2361 25 24 cbr 210 ------- 0 6.0 67.0 15 15 -8.18 113.27 24.55 113.27
+ 901.2361 24 67 cbr 210 ------- 0 6.0 67.0 15 15 24.55 113.27 27.32 101.46
- 901.2361 24 67 cbr 210 ------- 0 6.0 67.0 15 15 24.55 113.27 27.32 101.46
r 901.2424 24 67 cbr 210 ------- 0 6.0 67.0 15 15 24.55 113.27 27.32 101.46
+ 961.1600 6 5 cbr 210 ------- 0 6.0 67.0 16 16 -106.36 53.40 -73.64 53.40
- 961.1600 6 5 cbr 210 ------- 0 6.0 67.0 16 16 -106.36 53.40 -73.64 53.40
r 961.1753 6 5 cbr 210 ------- 0 6.0 67.0 16 16 -106.36 53.40 -73.64 53.40
+ 961.1753 5 4 cbr 210 ------- 0 6.0 67.0 16 16 -73.64 53.40 -40.91 53.40
- 961.1753 5 4 cbr 210 ------- 0 6.0 67.0 16 16 -73.64 53.40 -40.91 53.40
r 961.1905 5 4 cbr 210 ------- 0 6.0 67.0 16 16 -73.64 53.40 -40.91 53.40
+ 961.1905 4 15 cbr 210 ------- 0 6.0 67.0 16 16 -40.91 53.40 -57.27 85.00
- 961.1905 4 15 cbr 210 ------- 0 6.0 67.0 16 16 -40.91 53.40 -57.27 85.00
r 961.2031 4 15 cbr 210 ------- 0 6.0 67.0 16 16 -40.91 53.40 -57.27 85.00
+ 961.2031 15 26 cbr 210 ------- 0 6.0 67.0 16 16 -57.27 85.00 -40.91 116.60
- 961.2031 15 26 cbr 210 ------- 0 6.0 67.0 16 16 -57.27 85.00 -40.91 116.60
r 961.2156 15 26 cbr 210 ------- 0 6.0 67.0 16 16 -57.27 85.00 -40.91 116.60
+ 961.2156 26 25 cbr 210 ------- 0 6.0 67.0 16 16 -40.91 116.60 -8.18 116.60
- 961.2156 26 25 cbr 210 ------- 0 6.0 67.0 16 16 -40.91 116.60 -8.18 116.60
r 961.2309 26 25 cbr 210 ------- 0 6.0 67.0 16 16 -40.91 116.60 -8.18 116.60
+ 961.2309 25 24 cbr 210 ------- 0 6.0 67.0 16 16 -8.18 116.60 24.55 116.60
- 961.2309 25 24 cbr 210 ------- 0 6.0 67.0 16 16 -8.18 116.60 24.55 116.60
r 961.2461 25 24 cbr 210 ------- 0 6.0 67.0 16 16 -8.18 116.60 24.55 116.60
+ 961.2461 24 67 cbr 210 ------- 0 6.0 67.0 16 16 24.55 116.60 27.32 101.46
- 961.2461 24 67 cbr 210 ------- 0 6.0 67.0 16 16 24.55 116.60 27.32 101.46
r 961.2534 24 67 cbr 210 ------- 0 6.0 67.0 16 16 24.55 116.60 27.32 101.46
+ 1021.1700 6 5 cbr 210 ------- 0 6.0 67.0 17 17 -106.36 56.73 -73.64 56.73
- 1021.1700 6 5 cbr 210 ------- 0 6.0 67.0 17 17 -106.36 56.73 -73.64 56.73
r 1021.1853 6 5 cbr 210 ------- 0 6.0 67.0 17 17 -106.36 56.73 -73.64 56.73
+ 1021.1853 5 4 cbr 210 ------- 0 6.0 67.0 17 17 -73.64 56.73 -40.91 56.73
- 1021.1853 5 4 cbr 210 ------- 0 6.0 67.0 17 17 -73.64 56.73 -40.91 56.73
r 1021.2005 5 4 cbr 210 ------- 0 6.0 67.0 17 17 -73.64 56.73 -40.91 56.73
+ 1021.2005 4 15 cbr 210 ------- 0 6.0 67.0 17 17 -40.91 56.73 -57.27 88.33
- 1021.2005 4 15 cbr 210 ------- 0 6.0 67.0 17 17 -40.91 56.73 -57.27 88.33
r 1021.2131 4 15 cbr 210 ------- 0 6.0 67.0 17 17 -40.91 56.73 -57.27 88.33
+ 1021.2131 15 26 cbr 210 ------- 0 6.0 67.0 17 17 -57.27 88.33 -40.91 119.93
- 1021.2131 15 26 cbr 210 ------- 0 6.0 67.0 17 17 -57.27 88.33 -40.91 119.93
r 1021.2256 15 26 cbr 210 ------- 0 6.0 67.0 17 17 -57.27 88.33 -40.91 119.93
+ 1021.2256 26 25 cbr 210 ------- 0 6.0 67.0 17 17 -40.91 119.93 -8.18 119.93
- 1021.2256 26 25 cbr 210 ------- 0 6.0 67.0 17 17 -40.91 119.93 -8.18 119.93
r 1021.2409 26 25 cbr 210 ------- 0 6.0 67.0 17 17 -40.91 119.93 -8.18 119.93
+ 1021.2409 25 24 cbr 210 ------- 0 6.0 67.0 17 17 -8.18 119.93 24.55 119.93
- 1021.2409 25 24 cbr 210 ------- 0 6.0 67.0 17 17 -8.18 119.93 24.55 119.93
r 1021.2561 25 24 cbr 210 ------- 0 6.0 67.0 17 17 -8.18 119.93 24.55 119.93
+ 1021.2561 24 67 cbr 210 ------- 0 6.0 67.0 17 17 24.55 119.93 27.32 101.46
- 1021.2561 24 67 cbr 210 ------- 0 6.0 67.0 17 17 24.55 119.93 27.32 101.46
r 1021.2644 24 67 cbr 210 ------- 0 6.0 67.0 17 17 24.55 119.93 27.32 101.46
+ 1081.1800 6 5 cbr 210 ------- 0 6.0 67.0 18 18 -106.36 60.06 -73.64 60.06
- 1081.1800 6 5 cbr 210 ------- 0 6.0 67.0 18 18 -106.36 60.06 -73.64 60.06
r 1081.1953 6 5 cbr 210 ------- 0 6.0 67.0 18 18 -106.36 60.06 -73.64 60.06
+ 1081.1953 5 4 cbr 210 ------- 0 6.0 67.0 18 18 -73.64 60.06 -40.91 60.06
- 1081.1953 5 4 cbr 210 ------- 0 6.0 67.0 18 18 -73.64 60.06 -40.91 60.06
r 1081.2105 5 4 cbr 210 ------- 0 6.0 67.0 18 18 -73.64 60.07 -40.91 60.07
+ 1081.2105 4 15 cbr 210 ------- 0 6.0 67.0 18 18 -40.91 60.07 -57.27 91.67
- 1081.2105 4 15 cbr 210 ------- 0 6.0 67.0 18 18 -40.91 60.07 -57.27 91.67
r 1081.2231 4 15 cbr 210 ------- 0 6.0 67.0 18 18 -40.91 60.07 -57.27 91.67
+ 1081.2231 15 26 cbr 210 ------- 0 6.0 67.0 18 18 -57.27 91.67 -40.91 123.27
- 1081.2231 15 26 cbr 210 ------- 0 6.0 67.0 18 18 -57.27 91.67 -40.91 123.27
r 1081.2356 15 26 cbr 210 ------- 0 6.0 67.0 18 18 -57.27 91.67 -40.91 123.27
+ 1081.2356 26 25 cbr 210 ------- 0 6.0 67.0 18 18 -40.91 123.27 -8.18 123.27
- 1081.2356 26 25 cbr 210 ------- 0 6.0 67.0 18 18 -40.91 123.27 -8.18 123.27
r 1081.2509 26 25 cbr 210 ------- 0 6.0 67.0 18 18 -40.91 123.27 -8.18 123.27
+ 1081.2509 25 24 cbr 210 ------- 0 6.0 67.0 18 18 -8.18 123.27 24.55 123.27
- 1081.2509 25 24 cbr 210 ------- 0 6.0 67.0 18 18 -8.18 123.27 24.55 123.27
r 1081.2661 25 24 cbr 210 ------- 0 6.0 67.0 18 18 -8.18 123.27 24.55 123.27
+ 1081.2661 24 67 cbr 210 ------- 0 6.0 67.0 18 18 24.55 123.27 27.32 101.46
- 1081.2661 24 67 cbr 210 ------- 0 6.0 67.0 18 18 24.55 123.27 27.32 101.46
r 1081.2755 24 67 cbr 210 ------- 0 6.0 67.0 18 18 24.55 123.27 27.32 101.46
+ 1141.1900 6 5 cbr 210 ------- 0 6.0 67.0 19 19 -106.36 63.40 -73.64 63.40
- 1141.1900 6 5 cbr 210 ------- 0 6.0 67.0 19 19 -106.36 63.40 -73.64 63.40
r 1141.2053 6 5 cbr 210 ------- 0 6.0 67.0 19 19 -106.36 63.40 -73.64 63.40
+ 1141.2053 5 4 cbr 210 ------- 0 6.0 67.0 19 19 -73.64 63.40 -40.91 63.40
- 1141.2053 5 4 cbr 210 ------- 0 6.0 67.0 19 19 -73.64 63.40 -40.91 63.40
r 1141.2205 5 4 cbr 210 ------- 0 6.0 67.0 19 19 -73.64 63.40 -40.91 63.40
+ 1141.2205 4 15 cbr 210 ------- 0 6.0 67.0 19 19 -40.91 63.40 -57.27 95.00
- 1141.2205 4 15 cbr 210 ------- 0 6.0 67.0 19 19 -40.91 63.40 -57.27 95.00
r 1141.2331 4 15 cbr 210 ------- 0 6.0 67.0 19 19 -40.91 63.40 -57.27 95.00
+ 1141.2331 15 14 cbr 210 ------- 0 6.0 67.0 19 19 -57.27 95.00 -24.55 95.00
- 1141.2331 15 14 cbr 210 ------- 0 6.0 67.0 19 19 -57.27 95.00 -24.55 95.00
r 1141.2483 15 14 cbr 210 ------- 0 6.0 67.0 19 19 -57.27 95.00 -24.55 95.00
+ 1141.2483 14 13 cbr 210 ------- 0 6.0 67.0 19 19 -24.55 95.00 8.18 95.00
- 1141.2483 14 13 cbr 210 ------- 0 6.0 67.0 19 19 -24.55 95.00 8.18 95.00
r 1141.2636 14 13 cbr 210 ------- 0 6.0 67.0 19 19 -24.55 95.00 8.18 95.00
+ 1141.2636 13 67 cbr 210 ------- 0 6.0 67.0 19 19 8.18 95.00 27.32 101.46
- 1141.2636 13 67 cbr 210 ------- 0 6.0 67.0 19 19 8.18 95.00 27.32 101.46
r 1141.2731 13 67 cbr 210 ------- 0 6.0 67.0 19 19 8.18 95.00 27.32 101.46
+ 1201.2000 6 5 cbr 210 ------- 0 6.0 67.0 20 20 -106.36 66.73 -73.64 66.73
- 1201.2000 6 5 cbr 210 ------- 0 6.0 67.0 20 20 -106.36 66.73 -73.64 66.73
r 1201.2153 6 5 cbr 210 ------- 0 6.0 67.0 20 20 -106.36 66.73 -73.64 66.73
+ 1201.2153 5 4 cbr 210 ------- 0 6.0 67.0 20 20 -73.64 66.73 -40.91 66.73
- 1201.2153 5 4 cbr 210 ------- 0 6.0 67.0 20 20 -73.64 66.73 -40.91 66.73
r 1201.2305 5 4 cbr 210 ------- 0 6.0 67.0 20 20 -73.64 66.73 -40.91 66.73
+ 1201.2305 4 15 cbr 210 ------- 0 6.0 67.0 20 20 -40.91 66.73 -57.27 98.33
- 1201.2305 4 15 cbr 210 ------- 0 6.0 67.0 20 20 -40.91 66.73 -57.27 98.33
r 1201.2431 4 15 cbr 210 ------- 0 6.0 67.0 20 20 -40.91 66.73 -57.27 98.33
+ 1201.2431 15 14 cbr 210 ------- 0 6.0 67.0 20 20 -57.27 98.33 -24.55 98.33
- 1201.2431 15 14 cbr 210 ------- 0 6.0 67.0 20 20 -57.27 98.33 -24.55 98.33
r 1201.2583 15 14 cbr 210 ------- 0 6.0 67.0 20 20 -57.27 98.33 -24.55 98.33
+ 1201.2583 14 13 cbr 210 ------- 0 6.0 67.0 20 20 -24.55 98.33 8.18 98.33
- 1201.2583 14 13 cbr 210 ------- 0 6.0 67.0 20 20 -24.55 98.33 8.18 98.33
r 1201.2736 14 13 cbr 210 ------- 0 6.0 67.0 20 20 -24.55 98.34 8.18 98.34
+ 1201.2736 13 67 cbr 210 ------- 0 6.0 67.0 20 20 8.18 98.34 27.32 101.46
- 1201.2736 13 67 cbr 210 ------- 0 6.0 67.0 20 20 8.18 98.34 27.32 101.46
r 1201.2828 13 67 cbr 210 ------- 0 6.0 67.0 20 20 8.18 98.34 27.32 101.46
+ 1261.2100 6 5 cbr 210 ------- 0 6.0 67.0 21 21 -106.36 70.06 -73.64 70.06
- 1261.2100 6 5 cbr 210 ------- 0 6.0 67.0 21 21 -106.36 70.06 -73.64 70.06