d 1.0000 6 -2 cbr 210 ------- 0 6.0 67.0 0 0 -106.36 0.06 -999.00 -999.00
+ 61.0100 6 5 cbr 210 ------- 0 6.0 67.0 1 1 -106.36 3.39 -73.64 3.39
- 61.0100 6 5 cbr 210 ------- 0 6.0 67.0 1 1 -106.36 3.39 -73.64 3.39
r 61.0253 6 5 cbr 210 ------- 0 6.0 67.0 1 1 -106.36 3.39 -73.64 3.39
+ 61.0253 5 4 cbr 210 ------- 0 6.0 67.0 1 1 -73.64 3.39 -40.91 3.39
- 61.0253 5 4 cbr 210 ------- 0 6.0 67.0 1 1 -73.64 3.39 -40.91 3.39
r 61.0405 5 4 cbr 210 ------- 0 6.0 67.0 1 1 -73.64 3.39 -40.91 3.39
+ 61.0405 4 15 cbr 210 ------- 0 6.0 67.0 1 1 -40.91 3.39 -57.27 34.99
- 61.0405 4 15 cbr 210 ------- 0 6.0 67.0 1 1 -40.91 3.39 -57.27 34.99
r 61.0531 4 15 cbr 210 ------- 0 6.0 67.0 1 1 -40.91 3.39 -57.27 34.99
+ 61.0531 15 26 cbr 210 ------- 0 6.0 67.0 1 1 -57.27 34.99 -40.91 66.59
- 61.0531 15 26 cbr 210 ------- 0 6.0 67.0 1 1 -57.27 34.99 -40.91 66.59
r 61.0656 15 26 cbr 210 ------- 0 6.0 67.0 1 1 -57.27 34.99 -40.91 66.59
+ 61.0656 26 37 cbr 210 ------- 0 6.0 67.0 1 1 -40.91 66.59 -57.27 98.19
- 61.0656 26 37 cbr 210 ------- 0 6.0 67.0 1 1 -40.91 66.59 -57.27 98.19
r 61.0782 26 37 cbr 210 ------- 0 6.0 67.0 1 1 -40.91 66.59 -57.27 98.19
+ 61.0782 37 36 cbr 210 ------- 0 6.0 67.0 1 1 -57.27 98.19 -24.55 98.19
- 61.0782 37 36 cbr 210 ------- 0 6.0 67.0 1 1 -57.27 98.19 -24.55 98.19
r 61.0934 37 36 cbr 210 ------- 0 6.0 67.0 1 1 -57.27 98.19 -24.55 98.19
+ 61.0934 36 35 cbr 210 ------- 0 6.0 67.0 1 1 -24.55 98.19 8.18 98.19
- 61.0934 36 35 cbr 210 ------- 0 6.0 67.0 1 1 -24.55 98.19 8.18 98.19
r 61.1087 36 35 cbr 210 ------- 0 6.0 67.0 1 1 -24.55 98.19 8.18 98.19
+ 61.1087 35 67 cbr 210 ------- 0 6.0 67.0 1 1 8.18 98.19 27.32 101.46
- 61.1087 35 67 cbr 210 ------- 0 6.0 67.0 1 1 8.18 98.19 27.32 101.46
r 61.1179 35 67 cbr 210 ------- 0 6.0 67.0 1 1 8.18 98.20 27.32 101.46
+ 121.0200 6 5 cbr 210 ------- 0 6.0 67.0 2 2 -106.36 6.72 -73.64 6.72
- 121.0200 6 5 cbr 210 ------- 0 6.0 67.0 2 2 -106.36 6.72 -73.64 6.72
r 121.0353 6 5 cbr 210 ------- 0 6.0 67.0 2 2 -106.36 6.72 -73.64 6.72
+ 121.0353 5 4 cbr 210 ------- 0 6.0 67.0 2 2 -73.64 6.72 -40.91 6.72
- 121.0353 5 4 cbr 210 ------- 0 6.0 67.0 2 2 -73.64 6.72 -40.91 6.72
r 121.0505 5 4 cbr 210 ------- 0 6.0 67.0 2 2 -73.64 6.72 -40.91 6.72
+ 121.0505 4 15 cbr 210 ------- 0 6.0 67.0 2 2 -40.91 6.72 -57.27 38.32
- 121.0505 4 15 cbr 210 ------- 0 6.0 67.0 2 2 -40.91 6.72 -57.27 38.32
r 121.0631 4 15 cbr 210 ------- 0 6.0 67.0 2 2 -40.91 6.73 -57.27 38.33
+ 121.0631 15 26 cbr 210 ------- 0 6.0 67.0 2 2 -57.27 38.33 -40.91 69.93
- 121.0631 15 26 cbr 210 ------- 0 6.0 67.0 2 2 -57.27 38.33 -40.91 69.93
r 121.0756 15 26 cbr 210 ------- 0 6.0 67.0 2 2 -57.27 38.33 -40.91 69.93
+ 121.0756 26 37 cbr 210 ------- 0 6.0 67.0 2 2 -40.91 69.93 -57.27 101.53
- 121.0756 26 37 cbr 210 ------- 0 6.0 67.0 2 2 -40.91 69.93 -57.27 101.53
r 121.0882 26 37 cbr 210 ------- 0 6.0 67.0 2 2 -40.91 69.93 -57.27 101.53
+ 121.0882 37 36 cbr 210 ------- 0 6.0 67.0 2 2 -57.27 101.53 -24.55 101.53
- 121.0882 37 36 cbr 210 ------- 0 6.0 67.0 2 2 -57.27 101.53 -24.55 101.53
r 121.1034 37 36 cbr 210 ------- 0 6.0 67.0 2 2 -57.27 101.53 -24.55 101.53
+ 121.1034 36 35 cbr 210 ------- 0 6.0 67.0 2 2 -24.55 101.53 8.18 101.53
- 121.1034 36 35 cbr 210 ------- 0 6.0 67.0 2 2 -24.55 101.53 8.18 101.53
r 121.1187 36 35 cbr 210 ------- 0 6.0 67.0 2 2 -24.55 101.53 8.18 101.53
+ 121.1187 35 67 cbr 210 ------- 0 6.0 67.0 2 2 8.18 101.53 27.32 101.46
- 121.1187 35 67 cbr 210 ------- 0 6.0 67.0 2 2 8.18 101.53 27.32 101.46
r 121.1278 35 67 cbr 210 ------- 0 6.0 67.0 2 2 8.18 101.53 27.32 101.46
+ 181.0300 6 5 cbr 210 ------- 0 6.0 67.0 3 3 -106.36 10.06 -73.64 10.06
- 181.0300 6 5 cbr 210 ------- 0 6.0 67.0 3 3 -106.36 10.06 -73.64 10.06
r 181.0453 6 5 cbr 210 ------- 0 6.0 67.0 3 3 -106.36 10.06 -73.64 10.06
+ 181.0453 5 4 cbr 210 ------- 0 6.0 67.0 3 3 -73.64 10.06 -40.91 10.06
- 181.0453 5 4 cbr 210 ------- 0 6.0 67.0 3 3 -73.64 10.06 -40.91 10.06
r 181.0605 5 4 cbr 210 ------- 0 6.0 67.0 3 3 -73.64 10.06 -40.91 10.06
+ 181.0605 4 15 cbr 210 ------- 0 6.0 67.0 3 3 -40.91 10.06 -57.27 41.66
- 181.0605 4 15 cbr 210 ------- 0 6.0 67.0 3 3 -40.91 10.06 -57.27 41.66
r 181.0731 4 15 cbr 210 ------- 0 6.0 67.0 3 3 -40.91 10.06 -57.27 41.66
+ 181.0731 15 26 cbr 210 ------- 0 6.0 67.0 3 3 -57.27 41.66 -40.91 73.26
- 181.0731 15 26 cbr 210 ------- 0 6.0 67.0 3 3 -57.27 41.66 -40.91 73.26
r 181.0856 15 26 cbr 210 ------- 0 6.0 67.0 3 3 -57.27 41.66 -40.91 73.26
+ 181.0856 26 37 cbr 210 ------- 0 6.0 67.0 3 3 -40.91 73.26 -57.27 104.86
- 181.0856 26 37 cbr 210 ------- 0 6.0 67.0 3 3 -40.91 73.26 -57.27 104.86
r 181.0982 26 37 cbr 210 ------- 0 6.0 67.0 3 3 -40.91 73.26 -57.27 104.86
+ 181.0982 37 36 cbr 210 ------- 0 6.0 67.0 3 3 -57.27 104.86 -24.55 104.86
- 181.0982 37 36 cbr 210 ------- 0 6.0 67.0 3 3 -57.27 104.86 -24.55 104.86
r 181.1134 37 36 cbr 210 ------- 0 6.0 67.0 3 3 -57.27 104.86 -24.55 104.86
+ 181.1134 36 35 cbr 210 ------- 0 6.0 67.0 3 3 -24.55 104.86 8.18 104.86
- 181.1134 36 35 cbr 210 ------- 0 6.0 67.0 3 3 -24.55 104.86 8.18 104.86
r 181.1287 36 35 cbr 210 ------- 0 6.0 67.0 3 3 -24.55 104.86 8.18 104.86
+ 181.1287 35 67 cbr 210 ------- 0 6.0 67.0 3 3 8.18 104.86 27.32 101.46
- 181.1287 35 67 cbr 210 ------- 0 6.0 67.0 3 3 8.18 104.86 27.32 101.46
r 181.1379 35 67 cbr 210 ------- 0 6.0 67.0 3 3 8.18 104.86 27.32 101.46
+ 241.0400 6 5 cbr 210 ------- 0 6.0 67.0 4 4 -106.36 13.39 -73.64 13.39
- 241.0400 6 5 cbr 210 ------- 0 6.0 67.0 4 4 -106.36 13.39 -73.64 13.39
r 241.0553 6 5 cbr 210 ------- 0 6.0 67.0 4 4 -106.36 13.39 -73.64 13.39
+ 241.0553 5 4 cbr 210 ------- 0 6.0 67.0 4 4 -73.64 13.39 -40.91 13.39
- 241.0553 5 4 cbr 210 ------- 0 6.0 67.0 4 4 -73.64 13.39 -40.91 13.39
r 241.0705 5 4 cbr 210 ------- 0 6.0 67.0 4 4 -73.64 13.39 -40.91 13.39
+ 241.0705 4 15 cbr 210 ------- 0 6.0 67.0 4 4 -40.91 13.39 -57.27 44.99
- 241.0705 4 15 cbr 210 ------- 0 6.0 67.0 4 4 -40.91 13.39 -57.27 44.99
r 241.0831 4 15 cbr 210 ------- 0 6.0 67.0 4 4 -40.91 13.39 -57.27 44.99
+ 241.0831 15 26 cbr 210 ------- 0 6.0 67.0 4 4 -57.27 44.99 -40.91 76.59
- 241.0831 15 26 cbr 210 ------- 0 6.0 67.0 4 4 -57.27 44.99 -40.91 76.59
r 241.0956 15 26 cbr 210 ------- 0 6.0 67.0 4 4 -57.27 44.99 -40.91 76.59
+ 241.0956 26 37 cbr 210 ------- 0 6.0 67.0 4 4 -40.91 76.59 -57.27 108.19
- 241.0956 26 37 cbr 210 ------- 0 6.0 67.0 4 4 -40.91 76.59 -57.27 108.19
r 241.1082 26 37 cbr 210 ------- 0 6.0 67.0 4 4 -40.91 76.59 -57.27 108.19
+ 241.1082 37 36 cbr 210 ------- 0 6.0 67.0 4 4 -57.27 108.19 -24.55 108.19
- 241.1082 37 36 cbr 210 ------- 0 6.0 67.0 4 4 -57.27 108.19 -24.55 108.19
r 241.1234 37 36 cbr 210 ------- 0 6.0 67.0 4 4 -57.27 108.20 -24.55 108.20
+ 241.1234 36 35 cbr 210 ------- 0 6.0 67.0 4 4 -24.55 108.20 8.18 108.20
- 241.1234 36 35 cbr 210 ------- 0 6.0 67.0 4 4 -24.55 108.20 8.18 108.20
r 241.1387 36 35 cbr 210 ------- 0 6.0 67.0 4 4 -24.55 108.20 8.18 108.20
+ 241.1387 35 67 cbr 210 ------- 0 6.0 67.0 4 4 8.18 108.20 27.32 101.46
- 241.1387 35 67 cbr 210 ------- 0 6.0 67.0 4 4 8.18 108.20 27.32 101.46
r 241.1482 35 67 cbr 210 ------- 0 6.0 67.0 4 4 8.18 108.20 27.32 101.46
+ 301.0500 6 5 cbr 210 ------- 0 6.0 67.0 5 5 -106.36 16.72 -73.64 16.72
- 301.0500 6 5 cbr 210 ------- 0 6.0 67.0 5 5 -106.36 16.72 -73.64 16.72
r 301.0653 6 5 cbr 210 ------- 0 6.0 67.0 5 5 -106.36 16.73 -73.64 16.73
+ 301.0653 5 4 cbr 210 ------- 0 6.0 67.0 5 5 -73.64 16.73 -40.91 16.73
- 301.0653 5 4 cbr 210 ------- 0 6.0 67.0 5 5 -73.64 16.73 -40.91 16.73
r 301.0805 5 4 cbr 210 ------- 0 6.0 67.0 5 5 -73.64 16.73 -40.91 16.73
+ 301.0805 4 15 cbr 210 ------- 0 6.0 67.0 5 5 -40.91 16.73 -57.27 48.33
- 301.0805 4 15 cbr 210 ------- 0 6.0 67.0 5 5 -40.91 16.73 -57.27 48.33
r 301.0931 4 15 cbr 210 ------- 0 6.0 67.0 5 5 -40.91 16.73 -57.27 48.33
+ 301.0931 15 26 cbr 210 ------- 0 6.0 67.0 5 5 -57.27 48.33 -40.91 79.93
- 301.0931 15 26 cbr 210 ------- 0 6.0 67.0 5 5 -57.27 48.33 -40.91 79.93
r 301.1056 15 26 cbr 210 ------- 0 6.0 67.0 5 5 -57.27 48.33 -40.91 79.93
+ 301.1056 26 37 cbr 210 ------- 0 6.0 67.0 5 5 -40.91 79.93 -57.27 111.53
- 301.1056 26 37 cbr 210 ------- 0 6.0 67.0 5 5 -40.91 79.93 -57.27 111.53
r 301.1182 26 37 cbr 210 ------- 0 6.0 67.0 5 5 -40.91 79.93 -57.27 111.53
+ 301.1182 37 36 cbr 210 ------- 0 6.0 67.0 5 5 -57.27 111.53 -24.55 111.53
- 301.1182 37 36 cbr 210 ------- 0 6.0 67.0 5 5 -57.27 111.53 -24.55 111.53
r 301.1334 37 36 cbr 210 ------- 0 6.0 67.0 5 5 -57.27 111.53 -24.55 111.53
+ 301.1334 36 35 cbr 210 ------- 0 6.0 67.0 5 5 -24.55 111.53 8.18 111.53
- 301.1334 36 35 cbr 210 ------- 0 6.0 67.0 5 5 -24.55 111.53 8.18 111.53
r 301.1487 36 35 cbr 210 ------- 0 6.0 67.0 5 5 -24.55 111.53 8.18 111.53
+ 301.1487 35 67 cbr 210 ------- 0 6.0 67.0 5 5 8.18 111.53 27.32 101.46
- 301.1487 35 67 cbr 210 ------- 0 6.0 67.0 5 5 8.18 111.53 27.32 101.46
r 301.1586 35 67 cbr 210 ------- 0 6.0 67.0 5 5 8.18 111.53 27.32 101.46
+ 361.0600 6 5 cbr 210 ------- 0 6.0 67.0 6 6 -106.36 20.06 -73.64 20.06
- 361.0600 6 5 cbr 210 ------- 0 6.0 67.0 6 6 -106.36 20.06 -73.64 20.06
r 361.0753 6 5 cbr 210 ------- 0 6.0 67.0 6 6 -106.36 20.06 -73.64 20.06
+ 361.0753 5 4 cbr 210 ------- 0 6.0 67.0 6 6 -73.64 20.06 -40.91 20.06
- 361.0753 5 4 cbr 210 ------- 0 6.0 67.0 6 6 -73.64 20.06 -40.91 20.06
r 361.0905 5 4 cbr 210 ------- 0 6.0 67.0 6 6 -73.64 20.06 -40.91 20.06
+ 361.0905 4 15 cbr 210 ------- 0 6.0 67.0 6 6 -40.91 20.06 -57.27 51.66
- 361.0905 4 15 cbr 210 ------- 0 6.0 67.0 6 6 -40.91 20.06 -57.27 51.66
r 361.1031 4 15 cbr 210 ------- 0 6.0 67.0 6 6 -40.91 20.06 -57.27 51.66
+ 361.1031 15 26 cbr 210 ------- 0 6.0 67.0 6 6 -57.27 51.66 -40.91 83.26
- 361.1031 15 26 cbr 210 ------- 0 6.0 67.0 6 6 -57.27 51.66 -40.91 83.26
r 361.1156 15 26 cbr 210 ------- 0 6.0 67.0 6 6 -57.27 51.66 -40.91 83.26
+ 361.1156 26 25 cbr 210 ------- 0 6.0 67.0 6 6 -40.91 83.26 -8.18 83.26
- 361.1156 26 25 cbr 210 ------- 0 6.0 67.0 6 6 -40.91 83.26 -8.18 83.26
r 361.1309 26 25 cbr 210 ------- 0 6.0 67.0 6 6 -40.91 83.26 -8.18 83.26
+ 361.1309 25 24 cbr 210 ------- 0 6.0 67.0 6 6 -8.18 83.26 24.55 83.26
- 361.1309 25 24 cbr 210 ------- 0 6.0 67.0 6 6 -8.18 83.26 24.55 83.26
r 361.1461 25 24 cbr 210 ------- 0 6.0 67.0 6 6 -8.18 83.26 24.55 83.26
+ 361.1461 24 67 cbr 210 ------- 0 6.0 67.0 6 6 24.55 83.26 27.32 101.46
- 361.1461 24 67 cbr 210 ------- 0 6.0 67.0 6 6 24.55 83.26 27.32 101.46
r 361.1543 24 67 cbr 210 ------- 0 6.0 67.0 6 6 24.55 83.26 27.32 101.46
+ 421.0700 6 5 cbr 210 ------- 0 6.0 67.0 7 7 -106.36 23.39 -73.64 23.39
- 421.0700 6 5 cbr 210 ------- 0 6.0 67.0 7 7 -106.36 23.39 -73.64 23.39
r 421.0853 6 5 cbr 210 ------- 0 6.0 67.0 7 7 -106.36 23.39 -73.64 23.39
+ 421.0853 5 4 cbr 210 ------- 0 6.0 67.0 7 7 -73.64 23.39 -40.91 23.39
- 421.0853 5 4 cbr 210 ------- 0 6.0 67.0 7 7 -73.64 23.39 -40.91 23.39
r 421.1005 5 4 cbr 210 ------- 0 6.0 67.0 7 7 -73.64 23.39 -40.91 23.39
+ 421.1005 4 15 cbr 210 ------- 0 6.0 67.0 7 7 -40.91 23.39 -57.27 54.99
- 421.1005 4 15 cbr 210 ------- 0 6.0 67.0 7 7 -40.91 23.39 -57.27 54.99
r 421.1131 4 15 cbr 210 ------- 0 6.0 67.0 7 7 -40.91 23.39 -57.27 54.99
+ 421.1131 15 26 cbr 210 ------- 0 6.0 67.0 7 7 -57.27 54.99 -40.91 86.59
- 421.1131 15 26 cbr 210 ------- 0 6.0 67.0 7 7 -57.27 54.99 -40.91 86.59
r 421.1256 15 26 cbr 210 ------- 0 6.0 67.0 7 7 -57.27 55.00 -40.91 86.60
+ 421.1256 26 25 cbr 210 ------- 0 6.0 67.0 7 7 -40.91 86.60 -8.18 86.60
- 421.1256 26 25 cbr 210 ------- 0 6.0 67.0 7 7 -40.91 86.60 -8.18 86.60
r 421.1409 26 25 cbr 210 ------- 0 6.0 67.0 7 7 -40.91 86.60 -8.18 86.60
+ 421.1409 25 24 cbr 210 ------- 0 6.0 67.0 7 7 -8.18 86.60 24.55 86.60
- 421.1409 25 24 cbr 210 ------- 0 6.0 67.0 7 7 -8.18 86.60 24.55 86.60
r 421.1561 25 24 cbr 210 ------- 0 6.0 67.0 7 7 -8.18 86.60 24.55 86.60
+ 421.1561 24 67 cbr 210 ------- 0 6.0 67.0 7 7 24.55 86.60 27.32 101.46
- 421.1561 24 67 cbr 210 ------- 0 6.0 67.0 7 7 24.55 86.60 27.32 101.46
r 421.1633 24 67 cbr 210 ------- 0 6.0 67.0 7 7 24.55 86.60 27.32 101.46
+ 481.0800 6 5 cbr 210 ------- 0 6.0 67.0 8 8 -106.36 26.73 -73.64 26.73
- 481.0800 6 5 cbr 210 ------- 0 6.0 67.0 8 8 -106.36 26.73 -73.64 26.73
r 481.0953 6 5 cbr 210 ------- 0 6.0 67.0 8 8 -106.36 26.73 -73.64 26.73
+ 481.0953 5 4 cbr 210 ------- 0 6.0 67.0 8 8 -73.64 26.73 -40.91 26.73
- 481.0953 5 4 cbr 210 ------- 0 6.0 67.0 8 8 -73.64 26.73 -40.91 26.73
r 481.1105 5 4 cbr 210 ------- 0 6.0 67.0 8 8 -73.64 26.73 -40.91 26.73
+ 481.1105 4 15 cbr 210 ------- 0 6.0 67.0 8 8 -40.91 26.73 -57.27 58.33
- 481.1105 4 15 cbr 210 ------- 0 6.0 67.0 8 8 -40.91 26.73 -57.27 58.33
r 481.1231 4 15 cbr 210 ------- 0 6.0 67.0 8 8 -40.91 26.73 -57.27 58.33
+ 481.1231 15 26 cbr 210 ------- 0 6.0 67.0 8 8 -57.27 58.33 -40.91 89.93
- 481.1231 15 26 cbr 210 ------- 0 6.0 67.0 8 8 -57.27 58.33 -40.91 89.93
r 481.1356 15 26 cbr 210 ------- 0 6.0 67.0 8 8 -57.27 58.33 -40.91 89.93
+ 481.1356 26 25 cbr 210 ------- 0 6.0 67.0 8 8 -40.91 89.93 -8.18 89.93
- 481.1356 26 25 cbr 210 ------- 0 6.0 67.0 8 8 -40.91 89.93 -8.18 89.93
r 481.1509 26 25 cbr 210 ------- 0 6.0 67.0 8 8 -40.91 89.93 -8.18 89.93
+ 481.1509 25 24 cbr 210 ------- 0 6.0 67.0 8 8 -8.18 89.93 24.55 89.93
- 481.1509 25 24 cbr 210 ------- 0 6.0 67.0 8 8 -8.18 89.93 24.55 89.93
r 481.1661 25 24 cbr 210 ------- 0 6.0 67.0 8 8 -8.18 89.93 24.55 89.93
+ 481.1661 24 67 cbr 210 ------- 0 6.0 67.0 8 8 24.55 89.93 27.32 101.46
- 481.1661 24 67 cbr 210 ------- 0 6.0 67.0 8 8 24.55 89.93 27.32 101.46
r 481.1723 24 67 cbr 210 ------- 0 6.0 67.0 8 8 24.55 89.93 27.32 101.46
+ 541.0900 6 5 cbr 210 ------- 0 6.0 67.0 9 9 -106.36 30.06 -73.64 30.06
- 541.0900 6 5 cbr 210 ------- 0 6.0 67.0 9 9 -106.36 30.06 -73.64 30.06
r 541.1053 6 5 cbr 210 ------- 0 6.0 67.0 9 9 -106.36 30.06 -73.64 30.06
+ 541.1053 5 4 cbr 210 ------- 0 6.0 67.0 9 9 -73.64 30.06 -40.91 30.06
- 541.1053 5 4 cbr 210 ------- 0 6.0 67.0 9 9 -73.64 30.06 -40.91 30.06
r 541.1205 5 4 cbr 210 ------- 0 6.0 67.0 9 9 -73.64 30.06 -40.91 30.06
+ 541.1205 4 15 cbr 210 ------- 0 6.0 67.0 9 9 -40.91 30.06 -57.27 61.66
- 541.1205 4 15 cbr 210 ------- 0 6.0 67.0 9 9 -40.91 30.06 -57.27 61.66
r 541.1331 4 15 cbr 210 ------- 0 6.0 67.0 9 9 -40.91 30.06 -57.27 61.66
+ 541.1331 15 26 cbr 210 ------- 0 6.0 67.0 9 9 -57.27 61.66 -40.91 93.26
- 541.1331 15 26 cbr 210 ------- 0 6.0 67.0 9 9 -57.27 61.66 -40.91 93.26
r 541.1456 15 26 cbr 210 ------- 0 6.0 67.0 9 9 -57.27 61.66 -40.91 93.26
+ 541.1456 26 25 cbr 210 ------- 0 6.0 67.0 9 9 -40.91 93.26 -8.18 93.26
- 541.1456 26 25 cbr 210 ------- 0 6.0 67.0 9 9 -40.91 93.26 -8.18 93.26
r 541.1609 26 25 cbr 210 ------- 0 6.0 67.0 9 9 -40.91 93.26 -8.18 93.26
+ 541.1609 25 24 cbr 210 ------- 0 6.0 67.0 9 9 -8.18 93.26 24.55 93.26
- 541.1609 25 24 cbr 210 ------- 0 6.0 67.0 9 9 -8.18 93.26 24.55 93.26
r 541.1761 25 24 cbr 210 ------- 0 6.0 67.0 9 9 -8.18 93.26 24.55 93.26
+ 541.1761 24 67 cbr 210 ------- 0 6.0 67.0 9 9 24.55 93.26 27.32 101.46
- 541.1761 24 67 cbr 210 ------- 0 6.0 67.0 9 9 24.55 93.26 27.32 101.46
r 541.1814 24 67 cbr 210 ------- 0 6.0 67.0 9 9 24.55 93.26 27.32 101.46
+ 601.1000 6 5 cbr 210 ------- 0 6.0 67.0 10 10 -106.36 33.39 -73.64 33.39
- 601.1000 6 5 cbr 210 ------- 0 6.0 67.0 10 10 -106.36 33.39 -73.64 33.39
r 601.1153 6 5 cbr 210 ------- 0 6.0 67.0 10 10 -106.36 33.39 -73.64 33.39
+ 601.1153 5 4 cbr 210 ------- 0 6.0 67.0 10 10 -73.64 33.39 -40.91 33.39
- 601.1153 5 4 cbr 210 ------- 0 6.0 67.0 10 10 -73.64 33.39 -40.91 33.39
r 601.1305 5 4 cbr 210 ------- 0 6.0 67.0 10 10 -73.64 33.39 -40.91 33.39
+ 601.1305 4 15 cbr 210 ------- 0 6.0 67.0 10 10 -40.91 33.39 -57.27 64.99
- 601.1305 4 15 cbr 210 ------- 0 6.0 67.0 10 10 -40.91 33.39 -57.27 64.99
r 601.1431 4 15 cbr 210 ------- 0 6.0 67.0 10 10 -40.91 33.40 -57.27 65.00
+ 601.1431 15 26 cbr 210 ------- 0 6.0 67.0 10 10 -57.27 65.00 -40.91 96.60
- 601.1431 15 26 cbr 210 ------- 0 6.0 67.0 10 10 -57.27 65.00 -40.91 96.60
r 601.1556 15 26 cbr 210 ------- 0 6.0 67.0 10 10 -57.27 65.00 -40.91 96.60
+ 601.1556 26 25 cbr 210 ------- 0 6.0 67.0 10 10 -40.91 96.60 -8.18 96.60
- 601.1556 26 25 cbr 210 ------- 0 6.0 67.0 10 10 -40.91 96.60 -8.18 96.60
r 601.1709 26 25 cbr 210 ------- 0 6.0 67.0 10 10 -40.91 96.60 -8.18 96.60
+ 601.1709 25 24 cbr 210 ------- 0 6.0 67.0 10 10 -8.18 96.60 24.55 96.60
- 601.1709 25 24 cbr 210 ------- 0 6.0 67.0 10 10 -8.18 96.60 24.55 96.60
r 601.1861 25 24 cbr 210 ------- 0 6.0 67.0 10 10 -8.18 96.60 24.55 96.60
+ 601.1861 24 67 cbr 210 ------- 0 6.0 67.0 10 10 24.55 96.60 27.32 101.46
- 601.1861 24 67 cbr 210 ------- 0 6.0 67.0 10 10 24.55 96.60 27.32 101.46
r 601.1906 24 67 cbr 210 ------- 0 6.0 67.0 10 10 24.55 96.60 27.32 101.46
+ 661.1100 6 5 cbr 210 ------- 0 6.0 67.0 11 11 -106.36 36.73 -73.64 36.73
- 661.1100 6 5 cbr 210 ------- 0 6.0 67.0 11 11 -106.36 36.73 -73.64 36.73
r 661.1253 6 5 cbr 210 ------- 0 6.0 67.0 11 11 -106.36 36.73 -73.64 36.73
+ 661.1253 5 4 cbr 210 ------- 0 6.0 67.0 11 11 -73.64 36.73 -40.91 36.73
- 661.1253 5 4 cbr 210 ------- 0 6.0 67.0 11 11 -73.64 36.73 -40.91 36.73
r 661.1405 5 4 cbr 210 ------- 0 6.0 67.0 11 11 -73.64 36.73 -40.91 36.73
+ 661.1405 4 15 cbr 210 ------- 0 6.0 67.0 11 11 -40.91 36.73 -57.27 68.33
- 661.1405 4 15 cbr 210 ------- 0 6.0 67.0 11 11 -40.91 36.73 -57.27 68.33
r 661.1531 4 15 cbr 210 ------- 0 6.0 67.0 11 11 -40.91 36.73 -57.27 68.33
+ 661.1531 15 26 cbr 210 ------- 0 6.0 67.0 11 11 -57.27 68.33 -40.91 99.93
- 661.1531 15 26 cbr 210 ------- 0 6.0 67.0 11 11 -57.27 68.33 -40.91 99.93
r 661.1656 15 26 cbr 210 ------- 0 6.0 67.0 11 11 -57.27 68.33 -40.91 99.93
+ 661.1656 26 25 cbr 210 ------- 0 6.0 67.0 11 11 -40.91 99.93 -8.18 99.93
- 661.1656 26 25 cbr 210 ------- 0 6.0 67.0 11 11 -40.91 99.93 -8.18 99.93
r 661.1809 26 25 cbr 210 ------- 0 6.0 67.0 11 11 -40.91 99.93 -8.18 99.93
+ 661.1809 25 24 cbr 210 ------- 0 6.0 67.0 11 11 -8.18 99.93 24.55 99.93
- 661.1809 25 24 cbr 210 ------- 0 6.0 67.0 11 11 -8.18 99.93 24.55 99.93
r 661.1961 25 24 cbr 210 ------- 0 6.0 67.0 11 11 -8.18 99.93 24.55 99.93
+ 661.1961 24 67 cbr 210 ------- 0 6.0 67.0 11 11 24.55 99.93 27.32 101.46
- 661.1961 24 67 cbr 210 ------- 0 6.0 67.0 11 11 24.55 99.93 27.32 101.46
r 661.2002 24 67 cbr 210 ------- 0 6.0 67.0 11 11 24.55 99.93 27.32 101.46
+ 721.1200 6 5 cbr 210 ------- 0 6.0 67.0 12 12 -106.36 40.06 -73.64 40.06
- 721.1200 6 5 cbr 210 ------- 0 6.0 67.0 12 12 -106.36 40.06 -73.64 40.06
r 721.1353 6 5 cbr 210 ------- 0 6.0 67.0 12 12 -106.36 40.06 -73.64 40.06
+ 721.1353 5 4 cbr 210 ------- 0 6.0 67.0 12 12 -73.64 40.06 -40.91 40.06
- 721.1353 5 4 cbr 210 ------- 0 6.0 67.0 12 12 -73.64 40.06 -40.91 40.06
r 721.1505 5 4 cbr 210 ------- 0 6.0 67.0 12 12 -73.64 40.06 -40.91 40.06
+ 721.1505 4 15 cbr 210 ------- 0 6.0 67.0 12 12 -40.91 40.06 -57.27 71.66
- 721.1505 4 15 cbr 210 ------- 0 6.0 67.0 12 12 -40.91 40.06 -57.27 71.66
r 721.1631 4 15 cbr 210 ------- 0 6.0 67.0 12 12 -40.91 40.06 -57.27 71.66
+ 721.1631 15 26 cbr 210 ------- 0 6.0 67.0 12 12 -57.27 71.66 -40.91 103.26
- 721.1631 15 26 cbr 210 ------- 0 6.0 67.0 12 12 -57.27 71.66 -40.91 103.26
r 721.1756 15 26 cbr 210 ------- 0 6.0 67.0 12 12 -57.27 71.66 -40.91 103.26
+ 721.1756 26 25 cbr 210 ------- 0 6.0 67.0 12 12 -40.91 103.26 -8.18 103.26
- 721.1756 26 25 cbr 210 ------- 0 6.0 67.0 12 12 -40.91 103.26 -8.18 103.26
r 721.1909 26 25 cbr 210 ------- 0 6.0 67.0 12 12 -40.91 103.26 -8.18 103.26
+ 721.1909 25 24 cbr 210 ------- 0 6.0 67.0 12 12 -8.18 103.26 24.55 103.26
- 721.1909 25 24 cbr 210 ------- 0 6.0 67.0 12 12 -8.18 103.26 24.55 103.26
r 721.2061 25 24 cbr 210 ------- 0 6.0 67.0 12 12 -8.18 103.27 24.55 103.27
+ 721.2061 24 67 cbr 210 ------- 0 6.0 67.0 12 12 24.55 103.27 27.32 101.46
- 721.2061 24 67 cbr 210 ------- 0 6.0 67.0 12 12 24.55 103.27 27.32 101.46
r 721.2102 24 67 cbr 210 ------- 0 6.0 67.0 12 12 24.55 103.27 27.32 101.46
+ 781.1300 6 5 cbr 210 ------- 0 6.0 67.0 13 13 -106.36 43.39 -73.64 43.39
- 781.1300 6 5 cbr 210 ------- 0 6.0 67.0 13 13 -106.36 43.39 -73.64 43.39
r 781.1453 6 5 cbr 210 ------- 0 6.0 67.0 13 13 -106.36 43.40 -73.64 43.40
+ 781.1453 5 4 cbr 210 ------- 0 6.0 67.0 13 13 -73.64 43.40 -40.91 43.40
- 781.1453 5 4 cbr 210 ------- 0 6.0 67.0 13 13 -73.64 43.40 -40.91 43.40
r 781.1605 5 4 cbr 210 ------- 0 6.0 67.0 13 13 -73.64 43.40 -40.91 43.40
+ 781.1605 4 15 cbr 210 ------- 0 6.0 67.0 13 13 -40.91 43.40 -57.27 75.00
- 781.1605 4 15 cbr 210 ------- 0 6.0 67.0 13 13 -40.91 43.40 -57.27 75.00
r 781.1731 4 15 cbr 210 ------- 0 6.0 67.0 13 13 -40.91 43.40 -57.27 75.00
+ 781.1731 15 26 cbr 210 ------- 0 6.0 67.0 13 13 -57.27 75.00 -40.91 106.60
- 781.1731 15 26 cbr 210 ------- 0 6.0 67.0 13 13 -57.27 75.00 -40.91 106.60
r 781.1856 15 26 cbr 210 ------- 0 6.0 67.0 13 13 -57.27 75.00 -40.91 106.60
+ 781.1856 26 25 cbr 210 ------- 0 6.0 67.0 13 13 -40.91 106.60 -8.18 106.60
- 781.1856 26 25 cbr 210 ------- 0 6.0 67.0 13 13 -40.91 106.60 -8.18 106.60
r 781.2009 26 25 cbr 210 ------- 0 6.0 67.0 13 13 -40.91 106.60 -8.18 106.60
+ 781.2009 25 24 cbr 210 ------- 0 6.0 67.0 13 13 -8.18 106.60 24.55 106.60
- 781.2009 25 24 cbr 210 ------- 0 6.0 67.0 13 13 -8.18 106.60 24.55 106.60
r 781.2161 25 24 cbr 210 ------- 0 6.0 67.0 13 13 -8.18 106.60 24.55 106.60
+ 781.2161 24 67 cbr 210 ------- 0 6.0 67.0 13 13 24.55 106.60 27.32 101.46
- 781.2161 24 67 cbr 210 ------- 0 6.0 67.0 13 13 24.55 106.60 27.32 101.46
r 781.2207 24 67 cbr 210 ------- 0 6.0 67.0 13 13 24.55 106.60 27.32 101.46
+ 841.1400 6 5 cbr 210 ------- 0 6.0 67.0 14 14 -106.36 46.73 -73.64 46.73
- 841.1400 6 5 cbr 210 ------- 0 6.0 67.0 14 14 -106.36 46.73 -73.64 46.73
r 841.1553 6 5 cbr 210 ------- 0 6.0 67.0 14 14 -106.36 46.73 -73.64 46.73
+ 841.1553 5 4 cbr 210 ------- 0 6.0 67.0 14 14 -73.64 46.73 -40.91 46.73
- 841.1553 5 4 cbr 210 ------- 0 6.0 67.0 14 14 -73.64 46.73 -40.91 46.73
r 841.1705 5 4 cbr 210 ------- 0 6.0 67.0 14 14 -73.64 46.73 -40.91 46.73
+ 841.1705 4 15 cbr 210 ------- 0 6.0 67.0 14 14 -40.91 46.73 -57.27 78.33
- 841.1705 4 15 cbr 210 ------- 0 6.0 67.0 14 14 -40.91 46.73 -57.27 78.33
r 841.1831 4 15 cbr 210 ------- 0 6.0 67.0 14 14 -40.91 46.73 -57.27 78.33
+ 841.1831 15 26 cbr 210 ------- 0 6.0 67.0 14 14 -57.27 78.33 -40.91 109.93
- 841.1831 15 26 cbr 210 ------- 0 6.0 67.0 14 14 -57.27 78.33 -40.91 109.93
r 841.1956 15 26 cbr 210 ------- 0 6.0 67.0 14 14 -57.27 78.33 -40.91 109.93
+ 841.1956 26 25 cbr 210 ------- 0 6.0 67.0 14 14 -40.91 109.93 -8.18 109.93
- 841.1956 26 25 cbr 210 ------- 0 6.0 67.0 14 14 -40.91 109.93 -8.18 109.93
r 841.2109 26 25 cbr 210 ------- 0 6.0 67.0 14 14 -40.91 109.93 -8.18 109.93
+ 841.2109 25 24 cbr 210 ------- 0 6.0 67.0 14 14 -8.18 109.93 24.55 109.93
- 841.2109 25 24 cbr 210 ------- 0 6.0 67.0 14 14 -8.18 109.93 24.55 109.93
r 841.2261 25 24 cbr 210 ------- 0 6.0 67.0 14 14 -8.18 109.93 24.55 109.93
+ 841.2261 24 67 cbr 210 ------- 0 6.0 67.0 14 14 24.55 109.93 27.32 101.46
- 841.2261 24 67 cbr 210 ------- 0 6.0 67.0 14 14 24.55 109.93 27.32 101.46
r 841.2315 24 67 cbr 210 ------- 0 6.0 67.0 14 14 24.55 109.93 27.32 101.46
+ 901.1500 6 5 cbr 210 ------- 0 6.0 67.0 15 15 -106.36 50.06 -73.64 50.06
- 901.1500 6 5 cbr 210 ------- 0 6.0 67.0 15 15 -106.36 50.06 -73.64 50.06
r 901.1653 6 5 cbr 210 ------- 0 6.0 67.0 15 15 -106.36 50.06 -73.64 50.06
+ 901.1653 5 4 cbr 210 ------- 0 6.0 67.0 15 15 -73.64 50.06 -40.91 50.06
- 901.1653 5 4 cbr 210 ------- 0 6.0 67.0 15 15 -73.64 50.06 -40.91 50.06
r 901.1805 5 4 cbr 210 ------- 0 6.0 67.0 15 15 -73.64 50.06 -40.91 50.06
+ 901.1805 4 15 cbr 210 ------- 0 6.0 67.0 15 15 -40.91 50.06 -57.27 81.66
- 901.1805 4 15 cbr 210 ------- 0 6.0 67.0 15 15 -40.91 50.06 -57.27 81.66
r 901.1931 4 15 cbr 210 ------- 0 6.0 67.0 15 15 -40.91 50.06 -57.27 81.66
+ 901.1931 15 14 cbr 210 ------- 0 6.0 67.0 15 15 -57.27 81.66 -24.55 81.66
- 901.1931 15 14 cbr 210 ------- 0 6.0 67.0 15 15 -57.27 81.66 -24.55 81.66
r 901.2083 15 14 cbr 210 ------- 0 6.0 67.0 15 15 -57.27 81.67 -24.55 81.67
+ 901.2083 14 13 cbr 210 ------- 0 6.0 67.0 15 15 -24.55 81.67 8.18 81.67
- 901.2083 14 13 cbr 210 ------- 0 6.0 67.0 15 15 -24.55 81.67 8.18 81.67
r 901.2236 14 13 cbr 210 ------- 0 6.0 67.0 15 15 -24.55 81.67 8.18 81.67
+ 901.2236 13 12 cbr 210 ------- 0 6.0 67.0 15 15 8.18 81.67 40.91 81.67
- 901.2236 13 12 cbr 210 ------- 0 6.0 67.0 15 15 8.18 81.67 40.91 81.67
r 901.2388 13 12 cbr 210 ------- 0 6.0 67.0 15 15 8.18 81.67 40.91 81.67
+ 901.2388 12 67 cbr 210 ------- 0 6.0 67.0 15 15 40.91 81.67 27.32 101.46
- 901.2388 12 67 cbr 210 ------- 0 6.0 67.0 15 15 40.91 81.67 27.32 101.46
r 901.2487 12 67 cbr 210 ------- 0 6.0 67.0 15 15 40.91 81.67 27.32 101.46
+ 961.1600 6 5 cbr 210 ------- 0 6.0 67.0 16 16 -106.36 53.40 -73.64 53.40
- 961.1600 6 5 cbr 210 ------- 0 6.0 67.0 16 16 -106.36 53.40 -73.64 53.40
r 961.1753 6 5 cbr 210 ------- 0 6.0 67.0 16 16 -106.36 53.40 -73.64 53.40
+ 961.1753 5 4 cbr 210 ------- 0 6.0 67.0 16 16 -73.64 53.40 -40.91 53.40
- 961.1753 5 4 cbr 210 ------- 0 6.0 67.0 16 16 -73.64 53.40 -40.91 53.40
r 961.1905 5 4 cbr 210 ------- 0 6.0 67.0 16 16 -73.64 53.40 -40.91 53.40
+ 961.1905 4 15 cbr 210 ------- 0 6.0 67.0 16 16 -40.91 53.40 -57.27 85.00
- 961.1905 4 15 cbr 210 ------- 0 6.0 67.0 16 16 -40.91 53.40 -57.27 85.00
r 961.2031 4 15 cbr 210 ------- 0 6.0 67.0 16 16 -40.91 53.40 -57.27 85.00
+ 961.2031 15 14 cbr 210 ------- 0 6.0 67.0 16 16 -57.27 85.00 -24.55 85.00
- 961.2031 15 14 cbr 210 ------- 0 6.0 67.0 16 16 -57.27 85.00 -24.55 85.00
r 961.2183 15 14 cbr 210 ------- 0 6.0 67.0 16 16 -57.27 85.00 -24.55 85.00
+ 961.2183 14 13 cbr 210 ------- 0 6.0 67.0 16 16 -24.55 85.00 8.18 85.00
- 961.2183 14 13 cbr 210 ------- 0 6.0 67.0 16 16 -24.55 85.00 8.18 85.00
r 961.2336 14 13 cbr 210 ------- 0 6.0 67.0 16 16 -24.55 85.00 8.18 85.00
+ 961.2336 13 12 cbr 210 ------- 0 6.0 67.0 16 16 8.18 85.00 40.91 85.00
- 961.2336 13 12 cbr 210 ------- 0 6.0 67.0 16 16 8.18 85.00 40.91 85.00
r 961.2488 13 12 cbr 210 ------- 0 6.0 67.0 16 16 8.18 85.00 40.91 85.00
+ 961.2488 12 67 cbr 210 ------- 0 6.0 67.0 16 16 40.91 85.00 27.32 101.46
- 961.2488 12 67 cbr 210 ------- 0 6.0 67.0 16 16 40.91 85.00 27.32 101.46
r 961.2580 12 67 cbr 210 ------- 0 6.0 67.0 16 16 40.91 85.00 27.32 101.46
+ 1021.1700 6 5 cbr 210 ------- 0 6.0 67.0 17 17 -106.36 56.73 -73.64 56.73
- 1021.1700 6 5 cbr 210 ------- 0 6.0 67.0 17 17 -106.36 56.73 -73.64 56.73
r 1021.1853 6 5 cbr 210 ------- 0 6.0 67.0 17 17 -106.36 56.73 -73.64 56.73
+ 1021.1853 5 4 cbr 210 ------- 0 6.0 67.0 17 17 -73.64 56.73 -40.91 56.73
- 1021.1853 5 4 cbr 210 ------- 0 6.0 67.0 17 17 -73.64 56.73 -40.91 56.73
r 1021.2005 5 4 cbr 210 ------- 0 6.0 67.0 17 17 -73.64 56.73 -40.91 56.73
+ 1021.2005 4 15 cbr 210 ------- 0 6.0 67.0 17 17 -40.91 56.73 -57.27 88.33
- 1021.2005 4 15 cbr 210 ------- 0 6.0 67.0 17 17 -40.91 56.73 -57.27 88.33
r 1021.2131 4 15 cbr 210 ------- 0 6.0 67.0 17 17 -40.91 56.73 -57.27 88.33
+ 1021.2131 15 14 cbr 210 ------- 0 6.0 67.0 17 17 -57.27 88.33 -24.55 88.33
- 1021.2131 15 14 cbr 210 ------- 0 6.0 67.0 17 17 -57.27 88.33 -24.55 88.33
r 1021.2283 15 14 cbr 210 ------- 0 6.0 67.0 17 17 -57.27 88.33 -24.55 88.33
+ 1021.2283 14 13 cbr 210 ------- 0 6.0 67.0 17 17 -24.55 88.33 8.18 88.33
- 1021.2283 14 13 cbr 210 ------- 0 6.0 67.0 17 17 -24.55 88.33 8.18 88.33
r 1021.2436 14 13 cbr 210 ------- 0 6.0 67.0 17 17 -24.55 88.33 8.18 88.33
+ 1021.2436 13 12 cbr 210 ------- 0 6.0 67.0 17 17 8.18 88.33 40.91 88.33
- 1021.2436 13 12 cbr 210 ------- 0 6.0 67.0 17 17 8.18 88.33 40.91 88.33
r 1021.2588 13 12 cbr 210 ------- 0 6.0 67.0 17 17 8.18 88.33 40.91 88.33
+ 1021.2588 12 67 cbr 210 ------- 0 6.0 67.0 17 17 40.91 88.33 27.32 101.46
- 1021.2588 12 67 cbr 210 ------- 0 6.0 67.0 17 17 40.91 88.33 27.32 101.46
r 1021.2673 12 67 cbr 210 ------- 0 6.0 67.0 17 17 40.91 88.34 27.32 101.46
+ 1081.1800 6 5 cbr 210 ------- 0 6.0 67.0 18 18 -106.36 60.06 -73.64 60.06
- 1081.1800 6 5 cbr 210 ------- 0 6.0 67.0 18 18 -106.36 60.06 -73.64 60.06
r 1081.1953 6 5 cbr 210 ------- 0 6.0 67.0 18 18 -106.36 60.06 -73.64 60.06
+ 1081.1953 5 4 cbr 210 ------- 0 6.0 67.0 18 18 -73.64 60.06 -40.91 60.06
- 1081.1953 5 4 cbr 210 ------- 0 6.0 67.0 18 18 -73.64 60.06 -40.91 60.06
r 1081.2105 5 4 cbr 210 ------- 0 6.0 67.0 18 18 -73.64 60.07 -40.91 60.07
+ 1081.2105 4 15 cbr 210 ------- 0 6.0 67.0 18 18 -40.91 60.07 -57.27 91.67
- 1081.2105 4 15 cbr 210 ------- 0 6.0 67.0 18 18 -40.91 60.07 -57.27 91.67
r 1081.2231 4 15 cbr 210 ------- 0 6.0 67.0 18 18 -40.91 60.07 -57.27 91.67
+ 1081.2231 15 14 cbr 210 ------- 0 6.0 67.0 18 18 -57.27 91.67 -24.55 91.67
- 1081.2231 15 14 cbr 210 ------- 0 6.0 67.0 18 18 -57.27 91.67 -24.55 91.67
r 1081.2383 15 14 cbr 210 ------- 0 6.0 67.0 18 18 -57.27 91.67 -24.55 91.67
+ 1081.2383 14 13 cbr 210 ------- 0 6.0 67.0 18 18 -24.55 91.67 8.18 91.67
- 1081.2383 14 13 cbr 210 ------- 0 6.0 67.0 18 18 -24.55 91.67 8.18 91.67
r 1081.2536 14 13 cbr 210 ------- 0 6.0 67.0 18 18 -24.55 91.67 8.18 91.67
+ 1081.2536 13 12 cbr 210 ------- 0 6.0 67.0 18 18 8.18 91.67 40.91 91.67
- 1081.2536 13 12 cbr 210 ------- 0 6.0 67.0 18 18 8.18 91.67 40.91 91.67
r 1081.2688 13 12 cbr 210 ------- 0 6.0 67.0 18 18 8.18 91.67 40.91 91.67
+ 1081.2688 12 67 cbr 210 ------- 0 6.0 67.0 18 18 40.91 91.67 27.32 101.46
- 1081.2688 12 67 cbr 210 ------- 0 6.0 67.0 18 18 40.91 91.67 27.32 101.46
r 1081.2768 12 67 cbr 210 ------- 0 6.0 67.0 18 18 40.91 91.67 27.32 101.46
+ 1141.1900 6 5 cbr 210 ------- 0 6.0 67.0 19 19 -106.36 63.40 -73.64 63.40
- 1141.1900 6 5 cbr 210 ------- 0 6.0 67.0 19 19 -106.36 63.40 -73.64 63.40
r 1141.2053 6 5 cbr 210 ------- 0 6.0 67.0 19 19 -106.36 63.40 -73.64 63.40
+ 1141.2053 5 4 cbr 210 ------- 0 6.0 67.0 19 19 -73.64 63.40 -40.91 63.40
- 1141.2053 5 4 cbr 210 ------- 0 6.0 67.0 19 19 -73.64 63.40 -40.91 63.40
r 1141.2205 5 4 cbr 210 ------- 0 6.0 67.0 19 19 -73.64 63.40 -40.91 63.40
+ 1141.2205 4 15 cbr 210 ------- 0 6.0 67.0 19 19 -40.91 63.40 -57.27 95.00
- 1141.2205 4 15 cbr 210 ------- 0 6.0 67.0 19 19 -40.91 63.40 -57.27 95.00
r 1141.2331 4 15 cbr 210 ------- 0 6.0 67.0 19 19 -40.91 63.40 -57.27 95.00
+ 1141.2331 15 14 cbr 210 ------- 0 6.0 67.0 19 19 -57.27 95.00 -24.55 95.00