+ 60.0000 6 7 cbr 210 ------- 0 6.0 7.0 0 0 -106.36 3.33 -139.09 3.33
- 60.0000 6 7 cbr 210 ------- 0 6.0 7.0 0 0 -106.36 3.33 -139.09 3.33
+ 60.0017 6 7 cbr 210 ------- 0 6.0 7.0 1 1 -106.36 3.33 -139.09 3.33
- 60.0018 6 7 cbr 210 ------- 0 6.0 7.0 1 1 -106.36 3.33 -139.09 3.33
+ 60.0034 6 7 cbr 210 ------- 0 6.0 7.0 2 2 -106.36 3.33 -139.09 3.33
- 60.0036 6 7 cbr 210 ------- 0 6.0 7.0 2 2 -106.36 3.33 -139.09 3.33
+ 60.0050 6 7 cbr 210 ------- 0 6.0 7.0 3 3 -106.36 3.33 -139.09 3.33
- 60.0054 6 7 cbr 210 ------- 0 6.0 7.0 3 3 -106.36 3.33 -139.09 3.33
+ 60.0067 6 7 cbr 210 ------- 0 6.0 7.0 4 4 -106.36 3.33 -139.09 3.33
- 60.0072 6 7 cbr 210 ------- 0 6.0 7.0 4 4 -106.36 3.33 -139.09 3.33
+ 60.0084 6 7 cbr 210 ------- 0 6.0 7.0 5 5 -106.36 3.33 -139.09 3.33
- 60.0090 6 7 cbr 210 ------- 0 6.0 7.0 5 5 -106.36 3.33 -139.09 3.33
+ 60.0101 6 7 cbr 210 ------- 0 6.0 7.0 6 6 -106.36 3.33 -139.09 3.33
- 60.0108 6 7 cbr 210 ------- 0 6.0 7.0 6 6 -106.36 3.33 -139.09 3.33
+ 60.0118 6 7 cbr 210 ------- 0 6.0 7.0 7 7 -106.36 3.33 -139.09 3.33
- 60.0127 6 7 cbr 210 ------- 0 6.0 7.0 7 7 -106.36 3.33 -139.09 3.33
+ 60.0134 6 7 cbr 210 ------- 0 6.0 7.0 8 8 -106.36 3.33 -139.09 3.33
- 60.0145 6 7 cbr 210 ------- 0 6.0 7.0 8 8 -106.36 3.33 -139.09 3.33
+ 60.0151 6 7 cbr 210 ------- 0 6.0 7.0 9 9 -106.36 3.33 -139.09 3.33
r 60.0153 6 7 cbr 210 ------- 0 6.0 7.0 0 0 -106.36 3.33 -139.09 3.33
- 60.0163 6 7 cbr 210 ------- 0 6.0 7.0 9 9 -106.36 3.33 -139.09 3.33
+ 60.0168 6 7 cbr 210 ------- 0 6.0 7.0 10 10 -106.36 3.33 -139.09 3.33
r 60.0171 6 7 cbr 210 ------- 0 6.0 7.0 1 1 -106.36 3.33 -139.09 3.33
- 60.0181 6 7 cbr 210 ------- 0 6.0 7.0 10 10 -106.36 3.33 -139.09 3.33
+ 60.0185 6 7 cbr 210 ------- 0 6.0 7.0 11 11 -106.36 3.33 -139.09 3.33
r 60.0189 6 7 cbr 210 ------- 0 6.0 7.0 2 2 -106.36 3.33 -139.09 3.33
- 60.0199 6 7 cbr 210 ------- 0 6.0 7.0 11 11 -106.36 3.33 -139.09 3.33
+ 60.0202 6 7 cbr 210 ------- 0 6.0 7.0 12 12 -106.36 3.33 -139.09 3.33
r 60.0207 6 7 cbr 210 ------- 0 6.0 7.0 3 3 -106.36 3.33 -139.09 3.33
- 60.0217 6 7 cbr 210 ------- 0 6.0 7.0 12 12 -106.36 3.33 -139.09 3.33
+ 60.0218 6 7 cbr 210 ------- 0 6.0 7.0 13 13 -106.36 3.33 -139.09 3.33
r 60.0225 6 7 cbr 210 ------- 0 6.0 7.0 4 4 -106.36 3.33 -139.09 3.33
- 60.0235 6 7 cbr 210 ------- 0 6.0 7.0 13 13 -106.36 3.33 -139.09 3.33
+ 60.0235 6 7 cbr 210 ------- 0 6.0 7.0 14 14 -106.36 3.33 -139.09 3.33
r 60.0243 6 7 cbr 210 ------- 0 6.0 7.0 5 5 -106.36 3.33 -139.09 3.33
+ 60.0252 6 7 cbr 210 ------- 0 6.0 7.0 15 15 -106.36 3.33 -139.09 3.33
- 60.0253 6 7 cbr 210 ------- 0 6.0 7.0 14 14 -106.36 3.33 -139.09 3.33
r 60.0261 6 7 cbr 210 ------- 0 6.0 7.0 6 6 -106.36 3.33 -139.09 3.33
+ 60.0269 6 7 cbr 210 ------- 0 6.0 7.0 16 16 -106.36 3.33 -139.09 3.33
- 60.0271 6 7 cbr 210 ------- 0 6.0 7.0 15 15 -106.36 3.33 -139.09 3.33
r 60.0279 6 7 cbr 210 ------- 0 6.0 7.0 7 7 -106.36 3.33 -139.09 3.33
+ 60.0286 6 7 cbr 210 ------- 0 6.0 7.0 17 17 -106.36 3.33 -139.09 3.33
- 60.0289 6 7 cbr 210 ------- 0 6.0 7.0 16 16 -106.36 3.33 -139.09 3.33
r 60.0297 6 7 cbr 210 ------- 0 6.0 7.0 8 8 -106.36 3.33 -139.09 3.33
+ 60.0302 6 7 cbr 210 ------- 0 6.0 7.0 18 18 -106.36 3.33 -139.09 3.33
- 60.0307 6 7 cbr 210 ------- 0 6.0 7.0 17 17 -106.36 3.33 -139.09 3.33
r 60.0315 6 7 cbr 210 ------- 0 6.0 7.0 9 9 -106.36 3.33 -139.09 3.33
+ 60.0319 6 7 cbr 210 ------- 0 6.0 7.0 19 19 -106.36 3.33 -139.09 3.33
- 60.0325 6 7 cbr 210 ------- 0 6.0 7.0 18 18 -106.36 3.34 -139.09 3.34
r 60.0333 6 7 cbr 210 ------- 0 6.0 7.0 10 10 -106.36 3.34 -139.09 3.34
+ 60.0336 6 7 cbr 210 ------- 0 6.0 7.0 20 20 -106.36 3.34 -139.09 3.34
- 60.0344 6 7 cbr 210 ------- 0 6.0 7.0 19 19 -106.36 3.34 -139.09 3.34
r 60.0352 6 7 cbr 210 ------- 0 6.0 7.0 11 11 -106.36 3.34 -139.09 3.34
+ 60.0353 6 7 cbr 210 ------- 0 6.0 7.0 21 21 -106.36 3.34 -139.09 3.34
- 60.0362 6 7 cbr 210 ------- 0 6.0 7.0 20 20 -106.36 3.34 -139.09 3.34
r 60.0370 6 7 cbr 210 ------- 0 6.0 7.0 12 12 -106.36 3.34 -139.09 3.34
+ 60.0370 6 7 cbr 210 ------- 0 6.0 7.0 22 22 -106.36 3.34 -139.09 3.34
- 60.0380 6 7 cbr 210 ------- 0 6.0 7.0 21 21 -106.36 3.34 -139.09 3.34
+ 60.0386 6 7 cbr 210 ------- 0 6.0 7.0 23 23 -106.36 3.34 -139.09 3.34
r 60.0388 6 7 cbr 210 ------- 0 6.0 7.0 13 13 -106.36 3.34 -139.09 3.34
- 60.0398 6 7 cbr 210 ------- 0 6.0 7.0 22 22 -106.36 3.34 -139.09 3.34
+ 60.0403 6 7 cbr 210 ------- 0 6.0 7.0 24 24 -106.36 3.34 -139.09 3.34
r 60.0406 6 7 cbr 210 ------- 0 6.0 7.0 14 14 -106.36 3.34 -139.09 3.34
- 60.0416 6 7 cbr 210 ------- 0 6.0 7.0 23 23 -106.36 3.34 -139.09 3.34
+ 60.0420 6 7 cbr 210 ------- 0 6.0 7.0 25 25 -106.36 3.34 -139.09 3.34
r 60.0424 6 7 cbr 210 ------- 0 6.0 7.0 15 15 -106.36 3.34 -139.09 3.34
- 60.0434 6 7 cbr 210 ------- 0 6.0 7.0 24 24 -106.36 3.34 -139.09 3.34
+ 60.0437 6 7 cbr 210 ------- 0 6.0 7.0 26 26 -106.36 3.34 -139.09 3.34
r 60.0442 6 7 cbr 210 ------- 0 6.0 7.0 16 16 -106.36 3.34 -139.09 3.34
- 60.0452 6 7 cbr 210 ------- 0 6.0 7.0 25 25 -106.36 3.34 -139.09 3.34
+ 60.0454 6 7 cbr 210 ------- 0 6.0 7.0 27 27 -106.36 3.34 -139.09 3.34
r 60.0460 6 7 cbr 210 ------- 0 6.0 7.0 17 17 -106.36 3.34 -139.09 3.34
- 60.0470 6 7 cbr 210 ------- 0 6.0 7.0 26 26 -106.36 3.34 -139.09 3.34
+ 60.0470 6 7 cbr 210 ------- 0 6.0 7.0 28 28 -106.36 3.34 -139.09 3.34
r 60.0478 6 7 cbr 210 ------- 0 6.0 7.0 18 18 -106.36 3.34 -139.09 3.34
+ 60.0487 6 7 cbr 210 ------- 0 6.0 7.0 29 29 -106.36 3.34 -139.09 3.34
- 60.0488 6 7 cbr 210 ------- 0 6.0 7.0 27 27 -106.36 3.34 -139.09 3.34
r 60.0496 6 7 cbr 210 ------- 0 6.0 7.0 19 19 -106.36 3.34 -139.09 3.34
+ 60.0504 6 7 cbr 210 ------- 0 6.0 7.0 30 30 -106.36 3.34 -139.09 3.34
- 60.0506 6 7 cbr 210 ------- 0 6.0 7.0 28 28 -106.36 3.34 -139.09 3.34
r 60.0514 6 7 cbr 210 ------- 0 6.0 7.0 20 20 -106.36 3.34 -139.09 3.34
+ 60.0521 6 7 cbr 210 ------- 0 6.0 7.0 31 31 -106.36 3.34 -139.09 3.34
- 60.0524 6 7 cbr 210 ------- 0 6.0 7.0 29 29 -106.36 3.34 -139.09 3.34
r 60.0532 6 7 cbr 210 ------- 0 6.0 7.0 21 21 -106.36 3.34 -139.09 3.34
+ 60.0538 6 7 cbr 210 ------- 0 6.0 7.0 32 32 -106.36 3.34 -139.09 3.34
- 60.0542 6 7 cbr 210 ------- 0 6.0 7.0 30 30 -106.36 3.34 -139.09 3.34
r 60.0550 6 7 cbr 210 ------- 0 6.0 7.0 22 22 -106.36 3.34 -139.09 3.34
+ 60.0554 6 7 cbr 210 ------- 0 6.0 7.0 33 33 -106.36 3.34 -139.09 3.34
- 60.0560 6 7 cbr 210 ------- 0 6.0 7.0 31 31 -106.36 3.34 -139.09 3.34
r 60.0568 6 7 cbr 210 ------- 0 6.0 7.0 23 23 -106.36 3.34 -139.09 3.34
+ 60.0571 6 7 cbr 210 ------- 0 6.0 7.0 34 34 -106.36 3.34 -139.09 3.34
- 60.0579 6 7 cbr 210 ------- 0 6.0 7.0 32 32 -106.36 3.34 -139.09 3.34
r 60.0587 6 7 cbr 210 ------- 0 6.0 7.0 24 24 -106.36 3.34 -139.09 3.34
+ 60.0588 6 7 cbr 210 ------- 0 6.0 7.0 35 35 -106.36 3.34 -139.09 3.34
- 60.0597 6 7 cbr 210 ------- 0 6.0 7.0 33 33 -106.36 3.34 -139.09 3.34
r 60.0605 6 7 cbr 210 ------- 0 6.0 7.0 25 25 -106.36 3.34 -139.09 3.34
+ 60.0605 6 7 cbr 210 ------- 0 6.0 7.0 36 36 -106.36 3.34 -139.09 3.34
- 60.0615 6 7 cbr 210 ------- 0 6.0 7.0 34 34 -106.36 3.34 -139.09 3.34
+ 60.0622 6 7 cbr 210 ------- 0 6.0 7.0 37 37 -106.36 3.34 -139.09 3.34
r 60.0623 6 7 cbr 210 ------- 0 6.0 7.0 26 26 -106.36 3.34 -139.09 3.34
- 60.0633 6 7 cbr 210 ------- 0 6.0 7.0 35 35 -106.36 3.34 -139.09 3.34
+ 60.0638 6 7 cbr 210 ------- 0 6.0 7.0 38 38 -106.36 3.34 -139.09 3.34
r 60.0641 6 7 cbr 210 ------- 0 6.0 7.0 27 27 -106.36 3.34 -139.09 3.34
- 60.0651 6 7 cbr 210 ------- 0 6.0 7.0 36 36 -106.36 3.34 -139.09 3.34
+ 60.0655 6 7 cbr 210 ------- 0 6.0 7.0 39 39 -106.36 3.34 -139.09 3.34
r 60.0659 6 7 cbr 210 ------- 0 6.0 7.0 28 28 -106.36 3.34 -139.09 3.34
- 60.0669 6 7 cbr 210 ------- 0 6.0 7.0 37 37 -106.36 3.34 -139.09 3.34
+ 60.0672 6 7 cbr 210 ------- 0 6.0 7.0 40 40 -106.36 3.34 -139.09 3.34
r 60.0677 6 7 cbr 210 ------- 0 6.0 7.0 29 29 -106.36 3.34 -139.09 3.34
- 60.0687 6 7 cbr 210 ------- 0 6.0 7.0 38 38 -106.36 3.34 -139.09 3.34
+ 60.0689 6 7 cbr 210 ------- 0 6.0 7.0 41 41 -106.36 3.34 -139.09 3.34
r 60.0695 6 7 cbr 210 ------- 0 6.0 7.0 30 30 -106.36 3.34 -139.09 3.34
- 60.0705 6 7 cbr 210 ------- 0 6.0 7.0 39 39 -106.36 3.34 -139.09 3.34
+ 60.0706 6 7 cbr 210 ------- 0 6.0 7.0 42 42 -106.36 3.34 -139.09 3.34
r 60.0713 6 7 cbr 210 ------- 0 6.0 7.0 31 31 -106.36 3.34 -139.09 3.34
+ 60.0722 6 7 cbr 210 ------- 0 6.0 7.0 43 43 -106.36 3.34 -139.09 3.34
- 60.0723 6 7 cbr 210 ------- 0 6.0 7.0 40 40 -106.36 3.34 -139.09 3.34
r 60.0731 6 7 cbr 210 ------- 0 6.0 7.0 32 32 -106.36 3.34 -139.09 3.34
+ 60.0739 6 7 cbr 210 ------- 0 6.0 7.0 44 44 -106.36 3.34 -139.09 3.34
- 60.0741 6 7 cbr 210 ------- 0 6.0 7.0 41 41 -106.36 3.34 -139.09 3.34
r 60.0749 6 7 cbr 210 ------- 0 6.0 7.0 33 33 -106.36 3.34 -139.09 3.34
+ 60.0756 6 7 cbr 210 ------- 0 6.0 7.0 45 45 -106.36 3.34 -139.09 3.34
- 60.0759 6 7 cbr 210 ------- 0 6.0 7.0 42 42 -106.36 3.34 -139.09 3.34
r 60.0767 6 7 cbr 210 ------- 0 6.0 7.0 34 34 -106.36 3.34 -139.09 3.34
+ 60.0773 6 7 cbr 210 ------- 0 6.0 7.0 46 46 -106.36 3.34 -139.09 3.34
- 60.0777 6 7 cbr 210 ------- 0 6.0 7.0 43 43 -106.36 3.34 -139.09 3.34
r 60.0785 6 7 cbr 210 ------- 0 6.0 7.0 35 35 -106.36 3.34 -139.09 3.34
+ 60.0790 6 7 cbr 210 ------- 0 6.0 7.0 47 47 -106.36 3.34 -139.09 3.34
- 60.0796 6 7 cbr 210 ------- 0 6.0 7.0 44 44 -106.36 3.34 -139.09 3.34
r 60.0804 6 7 cbr 210 ------- 0 6.0 7.0 36 36 -106.36 3.34 -139.09 3.34
+ 60.0806 6 7 cbr 210 ------- 0 6.0 7.0 48 48 -106.36 3.34 -139.09 3.34
- 60.0814 6 7 cbr 210 ------- 0 6.0 7.0 45 45 -106.36 3.34 -139.09 3.34
r 60.0822 6 7 cbr 210 ------- 0 6.0 7.0 37 37 -106.36 3.34 -139.09 3.34
+ 60.0823 6 7 cbr 210 ------- 0 6.0 7.0 49 49 -106.36 3.34 -139.09 3.34
- 60.0832 6 7 cbr 210 ------- 0 6.0 7.0 46 46 -106.36 3.34 -139.09 3.34
r 60.0840 6 7 cbr 210 ------- 0 6.0 7.0 38 38 -106.36 3.34 -139.09 3.34
+ 60.0840 6 7 cbr 210 ------- 0 6.0 7.0 50 50 -106.36 3.34 -139.09 3.34
- 60.0850 6 7 cbr 210 ------- 0 6.0 7.0 47 47 -106.36 3.34 -139.09 3.34
+ 60.0857 6 7 cbr 210 ------- 0 6.0 7.0 51 51 -106.36 3.34 -139.09 3.34
r 60.0858 6 7 cbr 210 ------- 0 6.0 7.0 39 39 -106.36 3.34 -139.09 3.34
- 60.0868 6 7 cbr 210 ------- 0 6.0 7.0 48 48 -106.36 3.34 -139.09 3.34
+ 60.0874 6 7 cbr 210 ------- 0 6.0 7.0 52 52 -106.36 3.34 -139.09 3.34
r 60.0876 6 7 cbr 210 ------- 0 6.0 7.0 40 40 -106.36 3.34 -139.09 3.34
- 60.0886 6 7 cbr 210 ------- 0 6.0 7.0 49 49 -106.36 3.34 -139.09 3.34
+ 60.0890 6 7 cbr 210 ------- 0 6.0 7.0 53 53 -106.36 3.34 -139.09 3.34
r 60.0894 6 7 cbr 210 ------- 0 6.0 7.0 41 41 -106.36 3.34 -139.09 3.34
- 60.0904 6 7 cbr 210 ------- 0 6.0 7.0 50 50 -106.36 3.34 -139.09 3.34
+ 60.0907 6 7 cbr 210 ------- 0 6.0 7.0 54 54 -106.36 3.34 -139.09 3.34
r 60.0912 6 7 cbr 210 ------- 0 6.0 7.0 42 42 -106.36 3.34 -139.09 3.34
- 60.0922 6 7 cbr 210 ------- 0 6.0 7.0 51 51 -106.36 3.34 -139.09 3.34
+ 60.0924 6 7 cbr 210 ------- 0 6.0 7.0 55 55 -106.36 3.34 -139.09 3.34
r 60.0930 6 7 cbr 210 ------- 0 6.0 7.0 43 43 -106.36 3.34 -139.09 3.34
- 60.0940 6 7 cbr 210 ------- 0 6.0 7.0 52 52 -106.36 3.34 -139.09 3.34
+ 60.0941 6 7 cbr 210 ------- 0 6.0 7.0 56 56 -106.36 3.34 -139.09 3.34
r 60.0948 6 7 cbr 210 ------- 0 6.0 7.0 44 44 -106.36 3.34 -139.09 3.34
+ 60.0958 6 7 cbr 210 ------- 0 6.0 7.0 57 57 -106.36 3.34 -139.09 3.34
- 60.0958 6 7 cbr 210 ------- 0 6.0 7.0 53 53 -106.36 3.34 -139.09 3.34
r 60.0966 6 7 cbr 210 ------- 0 6.0 7.0 45 45 -106.36 3.34 -139.09 3.34
+ 60.0974 6 7 cbr 210 ------- 0 6.0 7.0 58 58 -106.36 3.34 -139.09 3.34
- 60.0976 6 7 cbr 210 ------- 0 6.0 7.0 54 54 -106.36 3.34 -139.09 3.34
r 60.0984 6 7 cbr 210 ------- 0 6.0 7.0 46 46 -106.36 3.34 -139.09 3.34
+ 60.0991 6 7 cbr 210 ------- 0 6.0 7.0 59 59 -106.36 3.34 -139.09 3.34
- 60.0994 6 7 cbr 210 ------- 0 6.0 7.0 55 55 -106.36 3.34 -139.09 3.34
r 60.1002 6 7 cbr 210 ------- 0 6.0 7.0 47 47 -106.36 3.34 -139.09 3.34
+ 60.1008 6 7 cbr 210 ------- 0 6.0 7.0 60 60 -106.36 3.34 -139.09 3.34
- 60.1012 6 7 cbr 210 ------- 0 6.0 7.0 56 56 -106.36 3.34 -139.09 3.34
r 60.1020 6 7 cbr 210 ------- 0 6.0 7.0 48 48 -106.36 3.34 -139.09 3.34
+ 60.1025 6 7 cbr 210 ------- 0 6.0 7.0 61 61 -106.36 3.34 -139.09 3.34
- 60.1031 6 7 cbr 210 ------- 0 6.0 7.0 57 57 -106.36 3.34 -139.09 3.34
r 60.1039 6 7 cbr 210 ------- 0 6.0 7.0 49 49 -106.36 3.34 -139.09 3.34
+ 60.1042 6 7 cbr 210 ------- 0 6.0 7.0 62 62 -106.36 3.34 -139.09 3.34
- 60.1049 6 7 cbr 210 ------- 0 6.0 7.0 58 58 -106.36 3.34 -139.09 3.34
r 60.1057 6 7 cbr 210 ------- 0 6.0 7.0 50 50 -106.36 3.34 -139.09 3.34
+ 60.1058 6 7 cbr 210 ------- 0 6.0 7.0 63 63 -106.36 3.34 -139.09 3.34
- 60.1067 6 7 cbr 210 ------- 0 6.0 7.0 59 59 -106.36 3.34 -139.09 3.34
r 60.1075 6 7 cbr 210 ------- 0 6.0 7.0 51 51 -106.36 3.34 -139.09 3.34
+ 60.1075 6 7 cbr 210 ------- 0 6.0 7.0 64 64 -106.36 3.34 -139.09 3.34
- 60.1085 6 7 cbr 210 ------- 0 6.0 7.0 60 60 -106.36 3.34 -139.09 3.34
+ 60.1092 6 7 cbr 210 ------- 0 6.0 7.0 65 65 -106.36 3.34 -139.09 3.34
r 60.1093 6 7 cbr 210 ------- 0 6.0 7.0 52 52 -106.36 3.34 -139.09 3.34
- 60.1103 6 7 cbr 210 ------- 0 6.0 7.0 61 61 -106.36 3.34 -139.09 3.34
+ 60.1109 6 7 cbr 210 ------- 0 6.0 7.0 66 66 -106.36 3.34 -139.09 3.34
r 60.1111 6 7 cbr 210 ------- 0 6.0 7.0 53 53 -106.36 3.34 -139.09 3.34
- 60.1121 6 7 cbr 210 ------- 0 6.0 7.0 62 62 -106.36 3.34 -139.09 3.34
+ 60.1126 6 7 cbr 210 ------- 0 6.0 7.0 67 67 -106.36 3.34 -139.09 3.34
r 60.1129 6 7 cbr 210 ------- 0 6.0 7.0 54 54 -106.36 3.34 -139.09 3.34
- 60.1139 6 7 cbr 210 ------- 0 6.0 7.0 63 63 -106.36 3.34 -139.09 3.34
+ 60.1142 6 7 cbr 210 ------- 0 6.0 7.0 68 68 -106.36 3.34 -139.09 3.34
r 60.1147 6 7 cbr 210 ------- 0 6.0 7.0 55 55 -106.36 3.34 -139.09 3.34
- 60.1157 6 7 cbr 210 ------- 0 6.0 7.0 64 64 -106.36 3.34 -139.09 3.34
+ 60.1159 6 7 cbr 210 ------- 0 6.0 7.0 69 69 -106.36 3.34 -139.09 3.34
r 60.1165 6 7 cbr 210 ------- 0 6.0 7.0 56 56 -106.36 3.34 -139.09 3.34
- 60.1175 6 7 cbr 210 ------- 0 6.0 7.0 65 65 -106.36 3.34 -139.09 3.34
+ 60.1176 6 7 cbr 210 ------- 0 6.0 7.0 70 70 -106.36 3.34 -139.09 3.34
r 60.1183 6 7 cbr 210 ------- 0 6.0 7.0 57 57 -106.36 3.34 -139.09 3.34
+ 60.1193 6 7 cbr 210 ------- 0 6.0 7.0 71 71 -106.36 3.34 -139.09 3.34
- 60.1193 6 7 cbr 210 ------- 0 6.0 7.0 66 66 -106.36 3.34 -139.09 3.34
r 60.1201 6 7 cbr 210 ------- 0 6.0 7.0 58 58 -106.36 3.34 -139.09 3.34
+ 60.1210 6 7 cbr 210 ------- 0 6.0 7.0 72 72 -106.36 3.34 -139.09 3.34
- 60.1211 6 7 cbr 210 ------- 0 6.0 7.0 67 67 -106.36 3.34 -139.09 3.34
r 60.1219 6 7 cbr 210 ------- 0 6.0 7.0 59 59 -106.36 3.34 -139.09 3.34
+ 60.1226 6 7 cbr 210 ------- 0 6.0 7.0 73 73 -106.36 3.34 -139.09 3.34
- 60.1229 6 7 cbr 210 ------- 0 6.0 7.0 68 68 -106.36 3.34 -139.09 3.34
r 60.1237 6 7 cbr 210 ------- 0 6.0 7.0 60 60 -106.36 3.34 -139.09 3.34
+ 60.1243 6 7 cbr 210 ------- 0 6.0 7.0 74 74 -106.36 3.34 -139.09 3.34
- 60.1248 6 7 cbr 210 ------- 0 6.0 7.0 69 69 -106.36 3.34 -139.09 3.34
r 60.1256 6 7 cbr 210 ------- 0 6.0 7.0 61 61 -106.36 3.34 -139.09 3.34
+ 60.1260 6 7 cbr 210 ------- 0 6.0 7.0 75 75 -106.36 3.34 -139.09 3.34
- 60.1266 6 7 cbr 210 ------- 0 6.0 7.0 70 70 -106.36 3.34 -139.09 3.34
r 60.1274 6 7 cbr 210 ------- 0 6.0 7.0 62 62 -106.36 3.34 -139.09 3.34
+ 60.1277 6 7 cbr 210 ------- 0 6.0 7.0 76 76 -106.36 3.34 -139.09 3.34
- 60.1284 6 7 cbr 210 ------- 0 6.0 7.0 71 71 -106.36 3.34 -139.09 3.34
r 60.1292 6 7 cbr 210 ------- 0 6.0 7.0 63 63 -106.36 3.34 -139.09 3.34
+ 60.1294 6 7 cbr 210 ------- 0 6.0 7.0 77 77 -106.36 3.34 -139.09 3.34
- 60.1302 6 7 cbr 210 ------- 0 6.0 7.0 72 72 -106.36 3.34 -139.09 3.34
r 60.1310 6 7 cbr 210 ------- 0 6.0 7.0 64 64 -106.36 3.34 -139.09 3.34
+ 60.1310 6 7 cbr 210 ------- 0 6.0 7.0 78 78 -106.36 3.34 -139.09 3.34
- 60.1320 6 7 cbr 210 ------- 0 6.0 7.0 73 73 -106.36 3.34 -139.09 3.34
+ 60.1327 6 7 cbr 210 ------- 0 6.0 7.0 79 79 -106.36 3.34 -139.09 3.34
r 60.1328 6 7 cbr 210 ------- 0 6.0 7.0 65 65 -106.36 3.34 -139.09 3.34
- 60.1338 6 7 cbr 210 ------- 0 6.0 7.0 74 74 -106.36 3.34 -139.09 3.34
+ 60.1344 6 7 cbr 210 ------- 0 6.0 7.0 80 80 -106.36 3.34 -139.09 3.34
r 60.1346 6 7 cbr 210 ------- 0 6.0 7.0 66 66 -106.36 3.34 -139.09 3.34
- 60.1356 6 7 cbr 210 ------- 0 6.0 7.0 75 75 -106.36 3.34 -139.09 3.34
+ 60.1361 6 7 cbr 210 ------- 0 6.0 7.0 81 81 -106.36 3.34 -139.09 3.34
r 60.1364 6 7 cbr 210 ------- 0 6.0 7.0 67 67 -106.36 3.34 -139.09 3.34
- 60.1374 6 7 cbr 210 ------- 0 6.0 7.0 76 76 -106.36 3.34 -139.09 3.34
+ 60.1378 6 7 cbr 210 ------- 0 6.0 7.0 82 82 -106.36 3.34 -139.09 3.34
r 60.1382 6 7 cbr 210 ------- 0 6.0 7.0 68 68 -106.36 3.34 -139.09 3.34
- 60.1392 6 7 cbr 210 ------- 0 6.0 7.0 77 77 -106.36 3.34 -139.09 3.34
+ 60.1394 6 7 cbr 210 ------- 0 6.0 7.0 83 83 -106.36 3.34 -139.09 3.34
r 60.1400 6 7 cbr 210 ------- 0 6.0 7.0 69 69 -106.36 3.34 -139.09 3.34
- 60.1410 6 7 cbr 210 ------- 0 6.0 7.0 78 78 -106.36 3.34 -139.09 3.34
+ 60.1411 6 7 cbr 210 ------- 0 6.0 7.0 84 84 -106.36 3.34 -139.09 3.34
r 60.1418 6 7 cbr 210 ------- 0 6.0 7.0 70 70 -106.36 3.34 -139.09 3.34
+ 60.1428 6 7 cbr 210 ------- 0 6.0 7.0 85 85 -106.36 3.34 -139.09 3.34
- 60.1428 6 7 cbr 210 ------- 0 6.0 7.0 79 79 -106.36 3.34 -139.09 3.34
r 60.1436 6 7 cbr 210 ------- 0 6.0 7.0 71 71 -106.36 3.34 -139.09 3.34
+ 60.1445 6 7 cbr 210 ------- 0 6.0 7.0 86 86 -106.36 3.34 -139.09 3.34
- 60.1446 6 7 cbr 210 ------- 0 6.0 7.0 80 80 -106.36 3.34 -139.09 3.34
r 60.1454 6 7 cbr 210 ------- 0 6.0 7.0 72 72 -106.36 3.34 -139.09 3.34
+ 60.1462 6 7 cbr 210 ------- 0 6.0 7.0 87 87 -106.36 3.34 -139.09 3.34
- 60.1464 6 7 cbr 210 ------- 0 6.0 7.0 81 81 -106.36 3.34 -139.09 3.34
r 60.1472 6 7 cbr 210 ------- 0 6.0 7.0 73 73 -106.36 3.34 -139.09 3.34
+ 60.1478 6 7 cbr 210 ------- 0 6.0 7.0 88 88 -106.36 3.34 -139.09 3.34
- 60.1483 6 7 cbr 210 ------- 0 6.0 7.0 82 82 -106.36 3.34 -139.09 3.34
r 60.1491 6 7 cbr 210 ------- 0 6.0 7.0 74 74 -106.36 3.34 -139.09 3.34
+ 60.1495 6 7 cbr 210 ------- 0 6.0 7.0 89 89 -106.36 3.34 -139.09 3.34
- 60.1501 6 7 cbr 210 ------- 0 6.0 7.0 83 83 -106.36 3.34 -139.09 3.34
r 60.1509 6 7 cbr 210 ------- 0 6.0 7.0 75 75 -106.36 3.34 -139.09 3.34
+ 60.1512 6 7 cbr 210 ------- 0 6.0 7.0 90 90 -106.36 3.34 -139.09 3.34
- 60.1519 6 7 cbr 210 ------- 0 6.0 7.0 84 84 -106.36 3.34 -139.09 3.34
r 60.1527 6 7 cbr 210 ------- 0 6.0 7.0 76 76 -106.36 3.34 -139.09 3.34
+ 60.1529 6 7 cbr 210 ------- 0 6.0 7.0 91 91 -106.36 3.34 -139.09 3.34
- 60.1537 6 7 cbr 210 ------- 0 6.0 7.0 85 85 -106.36 3.34 -139.09 3.34
r 60.1545 6 7 cbr 210 ------- 0 6.0 7.0 77 77 -106.36 3.34 -139.09 3.34
+ 60.1546 6 7 cbr 210 ------- 0 6.0 7.0 92 92 -106.36 3.34 -139.09 3.34
- 60.1555 6 7 cbr 210 ------- 0 6.0 7.0 86 86 -106.36 3.34 -139.09 3.34
+ 60.1562 6 7 cbr 210 ------- 0 6.0 7.0 93 93 -106.36 3.34 -139.09 3.34
r 60.1563 6 7 cbr 210 ------- 0 6.0 7.0 78 78 -106.36 3.34 -139.09 3.34
- 60.1573 6 7 cbr 210 ------- 0 6.0 7.0 87 87 -106.36 3.34 -139.09 3.34
+ 60.1579 6 7 cbr 210 ------- 0 6.0 7.0 94 94 -106.36 3.34 -139.09 3.34
r 60.1581 6 7 cbr 210 ------- 0 6.0 7.0 79 79 -106.36 3.34 -139.09 3.34
- 60.1591 6 7 cbr 210 ------- 0 6.0 7.0 88 88 -106.36 3.34 -139.09 3.34
+ 60.1596 6 7 cbr 210 ------- 0 6.0 7.0 95 95 -106.36 3.34 -139.09 3.34
r 60.1599 6 7 cbr 210 ------- 0 6.0 7.0 80 80 -106.36 3.34 -139.09 3.34
- 60.1609 6 7 cbr 210 ------- 0 6.0 7.0 89 89 -106.36 3.34 -139.09 3.34
+ 60.1613 6 7 cbr 210 ------- 0 6.0 7.0 96 96 -106.36 3.34 -139.09 3.34
r 60.1617 6 7 cbr 210 ------- 0 6.0 7.0 81 81 -106.36 3.34 -139.09 3.34
- 60.1627 6 7 cbr 210 ------- 0 6.0 7.0 90 90 -106.36 3.34 -139.09 3.34
+ 60.1630 6 7 cbr 210 ------- 0 6.0 7.0 97 97 -106.36 3.34 -139.09 3.34
r 60.1635 6 7 cbr 210 ------- 0 6.0 7.0 82 82 -106.36 3.34 -139.09 3.34
- 60.1645 6 7 cbr 210 ------- 0 6.0 7.0 91 91 -106.36 3.34 -139.09 3.34
+ 60.1646 6 7 cbr 210 ------- 0 6.0 7.0 98 98 -106.36 3.34 -139.09 3.34
r 60.1653 6 7 cbr 210 ------- 0 6.0 7.0 83 83 -106.36 3.34 -139.09 3.34
+ 60.1663 6 7 cbr 210 ------- 0 6.0 7.0 99 99 -106.36 3.34 -139.09 3.34
- 60.1663 6 7 cbr 210 ------- 0 6.0 7.0 92 92 -106.36 3.34 -139.09 3.34
r 60.1671 6 7 cbr 210 ------- 0 6.0 7.0 84 84 -106.36 3.34 -139.09 3.34
+ 60.1680 6 7 cbr 210 ------- 0 6.0 7.0 100 100 -106.36 3.34 -139.09 3.34
- 60.1681 6 7 cbr 210 ------- 0 6.0 7.0 93 93 -106.36 3.34 -139.09 3.34
r 60.1689 6 7 cbr 210 ------- 0 6.0 7.0 85 85 -106.36 3.34 -139.09 3.34
+ 60.1697 6 7 cbr 210 ------- 0 6.0 7.0 101 101 -106.36 3.34 -139.09 3.34
- 60.1700 6 7 cbr 210 ------- 0 6.0 7.0 94 94 -106.36 3.34 -139.09 3.34
r 60.1708 6 7 cbr 210 ------- 0 6.0 7.0 86 86 -106.36 3.34 -139.09 3.34
+ 60.1714 6 7 cbr 210 ------- 0 6.0 7.0 102 102 -106.36 3.34 -139.09 3.34
- 60.1718 6 7 cbr 210 ------- 0 6.0 7.0 95 95 -106.36 3.34 -139.09 3.34
r 60.1726 6 7 cbr 210 ------- 0 6.0 7.0 87 87 -106.36 3.34 -139.09 3.34
+ 60.1730 6 7 cbr 210 ------- 0 6.0 7.0 103 103 -106.36 3.34 -139.09 3.34
- 60.1736 6 7 cbr 210 ------- 0 6.0 7.0 96 96 -106.36 3.34 -139.09 3.34
r 60.1744 6 7 cbr 210 ------- 0 6.0 7.0 88 88 -106.36 3.34 -139.09 3.34
+ 60.1747 6 7 cbr 210 ------- 0 6.0 7.0 104 104 -106.36 3.34 -139.09 3.34
- 60.1754 6 7 cbr 210 ------- 0 6.0 7.0 97 97 -106.36 3.34 -139.09 3.34
r 60.1762 6 7 cbr 210 ------- 0 6.0 7.0 89 89 -106.36 3.34 -139.09 3.34
+ 60.1764 6 7 cbr 210 ------- 0 6.0 7.0 105 105 -106.36 3.34 -139.09 3.34
- 60.1772 6 7 cbr 210 ------- 0 6.0 7.0 98 98 -106.36 3.34 -139.09 3.34
r 60.1780 6 7 cbr 210 ------- 0 6.0 7.0 90 90 -106.36 3.34 -139.09 3.34
+ 60.1781 6 7 cbr 210 ------- 0 6.0 7.0 106 106 -106.36 3.34 -139.09 3.34
- 60.1790 6 7 cbr 210 ------- 0 6.0 7.0 99 99 -106.36 3.34 -139.09 3.34
+ 60.1798 6 7 cbr 210 ------- 0 6.0 7.0 107 107 -106.36 3.34 -139.09 3.34
r 60.1798 6 7 cbr 210 ------- 0 6.0 7.0 91 91 -106.36 3.34 -139.09 3.34
- 60.1808 6 7 cbr 210 ------- 0 6.0 7.0 100 100 -106.36 3.34 -139.09 3.34
+ 60.1814 6 7 cbr 210 ------- 0 6.0 7.0 108 108 -106.36 3.34 -139.09 3.34
r 60.1816 6 7 cbr 210 ------- 0 6.0 7.0 92 92 -106.36 3.34 -139.09 3.34
- 60.1826 6 7 cbr 210 ------- 0 6.0 7.0 101 101 -106.36 3.34 -139.09 3.34
+ 60.1831 6 7 cbr 210 ------- 0 6.0 7.0 109 109 -106.36 3.34 -139.09 3.34
r 60.1834 6 7 cbr 210 ------- 0 6.0 7.0 93 93 -106.36 3.34 -139.09 3.34
- 60.1844 6 7 cbr 210 ------- 0 6.0 7.0 102 102 -106.36 3.34 -139.09 3.34
+ 60.1848 6 7 cbr 210 ------- 0 6.0 7.0 110 110 -106.36 3.34 -139.09 3.34
r 60.1852 6 7 cbr 210 ------- 0 6.0 7.0 94 94 -106.36 3.34 -139.09 3.34
- 60.1862 6 7 cbr 210 ------- 0 6.0 7.0 103 103 -106.36 3.34 -139.09 3.34
+ 60.1865 6 7 cbr 210 ------- 0 6.0 7.0 111 111 -106.36 3.34 -139.09 3.34
r 60.1870 6 7 cbr 210 ------- 0 6.0 7.0 95 95 -106.36 3.34 -139.09 3.34
- 60.1880 6 7 cbr 210 ------- 0 6.0 7.0 104 104 -106.36 3.34 -139.09 3.34
+ 60.1882 6 7 cbr 210 ------- 0 6.0 7.0 112 112 -106.36 3.34 -139.09 3.34
r 60.1888 6 7 cbr 210 ------- 0 6.0 7.0 96 96 -106.36 3.34 -139.09 3.34
- 60.1898 6 7 cbr 210 ------- 0 6.0 7.0 105 105 -106.36 3.34 -139.09 3.34
+ 60.1898 6 7 cbr 210 ------- 0 6.0 7.0 113 113 -106.36 3.34 -139.09 3.34
r 60.1906 6 7 cbr 210 ------- 0 6.0 7.0 97 97 -106.36 3.34 -139.09 3.34
+ 60.1915 6 7 cbr 210 ------- 0 6.0 7.0 114 114 -106.36 3.34 -139.09 3.34
- 60.1916 6 7 cbr 210 ------- 0 6.0 7.0 106 106 -106.36 3.34 -139.09 3.34
r 60.1924 6 7 cbr 210 ------- 0 6.0 7.0 98 98 -106.36 3.34 -139.09 3.34
+ 60.1932 6 7 cbr 210 ------- 0 6.0 7.0 115 115 -106.36 3.34 -139.09 3.34
- 60.1935 6 7 cbr 210 ------- 0 6.0 7.0 107 107 -106.36 3.34 -139.09 3.34
r 60.1943 6 7 cbr 210 ------- 0 6.0 7.0 99 99 -106.36 3.34 -139.09 3.34
+ 60.1949 6 7 cbr 210 ------- 0 6.0 7.0 116 116 -106.36 3.34 -139.09 3.34
- 60.1953 6 7 cbr 210 ------- 0 6.0 7.0 108 108 -106.36 3.34 -139.09 3.34
r 60.1961 6 7 cbr 210 ------- 0 6.0 7.0 100 100 -106.36 3.34 -139.09 3.34
+ 60.1966 6 7 cbr 210 ------- 0 6.0 7.0 117 117 -106.36 3.34 -139.09 3.34
- 60.1971 6 7 cbr 210 ------- 0 6.0 7.0 109 109 -106.36 3.34 -139.09 3.34
r 60.1979 6 7 cbr 210 ------- 0 6.0 7.0 101 101 -106.36 3.34 -139.09 3.34
+ 60.1982 6 7 cbr 210 ------- 0 6.0 7.0 118 118 -106.36 3.34 -139.09 3.34
- 60.1989 6 7 cbr 210 ------- 0 6.0 7.0 110 110 -106.36 3.34 -139.09 3.34
r 60.1997 6 7 cbr 210 ------- 0 6.0 7.0 102 102 -106.36 3.34 -139.09 3.34
+ 60.1999 6 7 cbr 210 ------- 0 6.0 7.0 119 119 -106.36 3.34 -139.09 3.34
- 60.2007 6 7 cbr 210 ------- 0 6.0 7.0 111 111 -106.36 3.34 -139.09 3.34
r 60.2015 6 7 cbr 210 ------- 0 6.0 7.0 103 103 -106.36 3.34 -139.09 3.34
+ 60.2016 6 7 cbr 210 ------- 0 6.0 7.0 120 120 -106.36 3.34 -139.09 3.34
- 60.2025 6 7 cbr 210 ------- 0 6.0 7.0 112 112 -106.36 3.34 -139.09 3.34
+ 60.2033 6 7 cbr 210 ------- 0 6.0 7.0 121 121 -106.36 3.34 -139.09 3.34
r 60.2033 6 7 cbr 210 ------- 0 6.0 7.0 104 104 -106.36 3.34 -139.09 3.34
- 60.2043 6 7 cbr 210 ------- 0 6.0 7.0 113 113 -106.36 3.34 -139.09 3.34
+ 60.2050 6 7 cbr 210 ------- 0 6.0 7.0 122 122 -106.36 3.34 -139.09 3.34
r 60.2051 6 7 cbr 210 ------- 0 6.0 7.0 105 105 -106.36 3.34 -139.09 3.34
- 60.2061 6 7 cbr 210 ------- 0 6.0 7.0 114 114 -106.36 3.34 -139.09 3.34
+ 60.2066 6 7 cbr 210 ------- 0 6.0 7.0 123 123 -106.36 3.34 -139.09 3.34
r 60.2069 6 7 cbr 210 ------- 0 6.0 7.0 106 106 -106.36 3.34 -139.09 3.34
- 60.2079 6 7 cbr 210 ------- 0 6.0 7.0 115 115 -106.36 3.34 -139.09 3.34
+ 60.2083 6 7 cbr 210 ------- 0 6.0 7.0 124 124 -106.36 3.34 -139.09 3.34
r 60.2087 6 7 cbr 210 ------- 0 6.0 7.0 107 107 -106.36 3.34 -139.09 3.34
- 60.2097 6 7 cbr 210 ------- 0 6.0 7.0 116 116 -106.36 3.34 -139.09 3.34
+ 60.2100 6 7 cbr 210 ------- 0 6.0 7.0 125 125 -106.36 3.34 -139.09 3.34
r 60.2105 6 7 cbr 210 ------- 0 6.0 7.0 108 108 -106.36 3.34 -139.09 3.34
- 60.2115 6 7 cbr 210 ------- 0 6.0 7.0 117 117 -106.36 3.34 -139.09 3.34
+ 60.2117 6 7 cbr 210 ------- 0 6.0 7.0 126 126 -106.36 3.34 -139.09 3.34
r 60.2123 6 7 cbr 210 ------- 0 6.0 7.0 109 109 -106.36 3.35 -139.09 3.35
- 60.2133 6 7 cbr 210 ------- 0 6.0 7.0 118 118 -106.36 3.35 -139.09 3.35
+ 60.2134 6 7 cbr 210 ------- 0 6.0 7.0 127 127 -106.36 3.35 -139.09 3.35
r 60.2141 6 7 cbr 210 ------- 0 6.0 7.0 110 110 -106.36 3.35 -139.09 3.35
+ 60.2150 6 7 cbr 210 ------- 0 6.0 7.0 128 128 -106.36 3.35 -139.09 3.35
- 60.2152 6 7 cbr 210 ------- 0 6.0 7.0 119 119 -106.36 3.35 -139.09 3.35
r 60.2160 6 7 cbr 210 ------- 0 6.0 7.0 111 111 -106.36 3.35 -139.09 3.35
+ 60.2167 6 7 cbr 210 ------- 0 6.0 7.0 129 129 -106.36 3.35 -139.09 3.35
- 60.2170 6 7 cbr 210 ------- 0 6.0 7.0 120 120 -106.36 3.35 -139.09 3.35
r 60.2178 6 7 cbr 210 ------- 0 6.0 7.0 112 112 -106.36 3.35 -139.09 3.35
+ 60.2184 6 7 cbr 210 ------- 0 6.0 7.0 130 130 -106.36 3.35 -139.09 3.35
- 60.2188 6 7 cbr 210 ------- 0 6.0 7.0 121 121 -106.36 3.35 -139.09 3.35
r 60.2196 6 7 cbr 210 ------- 0 6.0 7.0 113 113 -106.36 3.35 -139.09 3.35
+ 60.2201 6 7 cbr 210 ------- 0 6.0 7.0 131 131 -106.36 3.35 -139.09 3.35
- 60.2206 6 7 cbr 210 ------- 0 6.0 7.0 122 122 -106.36 3.35 -139.09 3.35
r 60.2214 6 7 cbr 210 ------- 0 6.0 7.0 114 114 -106.36 3.35 -139.09 3.35
+ 60.2218 6 7 cbr 210 ------- 0 6.0 7.0 132 132 -106.36 3.35 -139.09 3.35
- 60.2224 6 7 cbr 210 ------- 0 6.0 7.0 123 123 -106.36 3.35 -139.09 3.35
r 60.2232 6 7 cbr 210 ------- 0 6.0 7.0 115 115 -106.36 3.35 -139.09 3.35
+ 60.2234 6 7 cbr 210 ------- 0 6.0 7.0 133 133 -106.36 3.35 -139.09 3.35
- 60.2242 6 7 cbr 210 ------- 0 6.0 7.0 124 124 -106.36 3.35 -139.09 3.35
r 60.2250 6 7 cbr 210 ------- 0 6.0 7.0 116 116 -106.36 3.35 -139.09 3.35
+ 60.2251 6 7 cbr 210 ------- 0 6.0 7.0 134 134 -106.36 3.35 -139.09 3.35
- 60.2260 6 7 cbr 210 ------- 0 6.0 7.0 125 125 -106.36 3.35 -139.09 3.35
r 60.2268 6 7 cbr 210 ------- 0 6.0 7.0 117 117 -106.36 3.35 -139.09 3.35
+ 60.2268 6 7 cbr 210 ------- 0 6.0 7.0 135 135 -106.36 3.35 -139.09 3.35
- 60.2278 6 7 cbr 210 ------- 0 6.0 7.0 126 126 -106.36 3.35 -139.09 3.35
+ 60.2285 6 7 cbr 210 ------- 0 6.0 7.0 136 136 -106.36 3.35 -139.09 3.35
r 60.2286 6 7 cbr 210 ------- 0 6.0 7.0 118 118 -106.36 3.35 -139.09 3.35
- 60.2296 6 7 cbr 210 ------- 0 6.0 7.0 127 127 -106.36 3.35 -139.09 3.35
+ 60.2302 6 7 cbr 210 ------- 0 6.0 7.0 137 137 -106.36 3.35 -139.09 3.35
r 60.2304 6 7 cbr 210 ------- 0 6.0 7.0 119 119 -106.36 3.35 -139.09 3.35
- 60.2314 6 7 cbr 210 ------- 0 6.0 7.0 128 128 -106.36 3.35 -139.09 3.35
+ 60.2318 6 7 cbr 210 ------- 0 6.0 7.0 138 138 -106.36 3.35 -139.09 3.35
r 60.2322 6 7 cbr 210 ------- 0 6.0 7.0 120 120 -106.36 3.35 -139.09 3.35
- 60.2332 6 7 cbr 210 ------- 0 6.0 7.0 129 129 -106.36 3.35 -139.09 3.35
+ 60.2335 6 7 cbr 210 ------- 0 6.0 7.0 139 139 -106.36 3.35 -139.09 3.35
r 60.2340 6 7 cbr 210 ------- 0 6.0 7.0 121 121 -106.36 3.35 -139.09 3.35
- 60.2350 6 7 cbr 210 ------- 0 6.0 7.0 130 130 -106.36 3.35 -139.09 3.35
+ 60.2352 6 7 cbr 210 ------- 0 6.0 7.0 140 140 -106.36 3.35 -139.09 3.35
r 60.2358 6 7 cbr 210 ------- 0 6.0 7.0 122 122 -106.36 3.35 -139.09 3.35
- 60.2368 6 7 cbr 210 ------- 0 6.0 7.0 131 131 -106.36 3.35 -139.09 3.35
+ 60.2369 6 7 cbr 210 ------- 0 6.0 7.0 141 141 -106.36 3.35 -139.09 3.35
r 60.2376 6 7 cbr 210 ------- 0 6.0 7.0 123 123 -106.36 3.35 -139.09 3.35
+ 60.2386 6 7 cbr 210 ------- 0 6.0 7.0 142 142 -106.36 3.35 -139.09 3.35
- 60.2387 6 7 cbr 210 ------- 0 6.0 7.0 132 132 -106.36 3.35 -139.09 3.35
r 60.2395 6 7 cbr 210 ------- 0 6.0 7.0 124 124 -106.36 3.35 -139.09 3.35
+ 60.2402 6 7 cbr 210 ------- 0 6.0 7.0 143 143 -106.36 3.35 -139.09 3.35
- 60.2405 6 7 cbr 210 ------- 0 6.0 7.0 133 133 -106.36 3.35 -139.09 3.35
r 60.2413 6 7 cbr 210 ------- 0 6.0 7.0 125 125 -106.36 3.35 -139.09 3.35
+ 60.2419 6 7 cbr 210 ------- 0 6.0 7.0 144 144 -106.36 3.35 -139.09 3.35
- 60.2423 6 7 cbr 210 ------- 0 6.0 7.0 134 134 -106.36 3.35 -139.09 3.35
r 60.2431 6 7 cbr 210 ------- 0 6.0 7.0 126 126 -106.36 3.35 -139.09 3.35
+ 60.2436 6 7 cbr 210 ------- 0 6.0 7.0 145 145 -106.36 3.35 -139.09 3.35
- 60.2441 6 7 cbr 210 ------- 0 6.0 7.0 135 135 -106.36 3.35 -139.09 3.35
r 60.2449 6 7 cbr 210 ------- 0 6.0 7.0 127 127 -106.36 3.35 -139.09 3.35
+ 60.2453 6 7 cbr 210 ------- 0 6.0 7.0 146 146 -106.36 3.35 -139.09 3.35
- 60.2459 6 7 cbr 210 ------- 0 6.0 7.0 136 136 -106.36 3.35 -139.09 3.35
r 60.2467 6 7 cbr 210 ------- 0 6.0 7.0 128 128 -106.36 3.35 -139.09 3.35
+ 60.2470 6 7 cbr 210 ------- 0 6.0 7.0 147 147 -106.36 3.35 -139.09 3.35