d 1.0000 6 -2 cbr 210 ------- 0 6.0 67.0 0 0 -106.36 0.06 -999.00 -999.00
+ 61.0100 6 5 cbr 210 ------- 0 6.0 67.0 1 1 -106.36 3.39 -73.64 3.39
- 61.0100 6 5 cbr 210 ------- 0 6.0 67.0 1 1 -106.36 3.39 -73.64 3.39
r 61.0253 6 5 cbr 210 ------- 0 6.0 67.0 1 1 -106.36 3.39 -73.64 3.39
+ 61.0253 5 4 cbr 210 ------- 0 6.0 67.0 1 1 -73.64 3.39 -40.91 3.39
- 61.0253 5 4 cbr 210 ------- 0 6.0 67.0 1 1 -73.64 3.39 -40.91 3.39
r 61.0405 5 4 cbr 210 ------- 0 6.0 67.0 1 1 -73.64 3.39 -40.91 3.39
+ 61.0405 4 3 cbr 210 ------- 0 6.0 67.0 1 1 -40.91 3.39 -8.18 3.39
- 61.0405 4 3 cbr 210 ------- 0 6.0 67.0 1 1 -40.91 3.39 -8.18 3.39
r 61.0558 4 3 cbr 210 ------- 0 6.0 67.0 1 1 -40.91 3.39 -8.18 3.39
+ 61.0558 3 2 cbr 210 ------- 0 6.0 67.0 1 1 -8.18 3.39 24.55 3.39
- 61.0558 3 2 cbr 210 ------- 0 6.0 67.0 1 1 -8.18 3.39 24.55 3.39
r 61.0710 3 2 cbr 210 ------- 0 6.0 67.0 1 1 -8.18 3.39 24.55 3.39
+ 61.0710 2 1 cbr 210 ------- 0 6.0 67.0 1 1 24.55 3.39 57.27 3.39
- 61.0710 2 1 cbr 210 ------- 0 6.0 67.0 1 1 24.55 3.39 57.27 3.39
r 61.0863 2 1 cbr 210 ------- 0 6.0 67.0 1 1 24.55 3.39 57.27 3.39
+ 61.0863 1 12 cbr 210 ------- 0 6.0 67.0 1 1 57.27 3.39 40.91 34.99
- 61.0863 1 12 cbr 210 ------- 0 6.0 67.0 1 1 57.27 3.39 40.91 34.99
r 61.0988 1 12 cbr 210 ------- 0 6.0 67.0 1 1 57.27 3.39 40.91 34.99
+ 61.0988 12 23 cbr 210 ------- 0 6.0 67.0 1 1 40.91 34.99 57.27 66.59
- 61.0988 12 23 cbr 210 ------- 0 6.0 67.0 1 1 40.91 34.99 57.27 66.59
r 61.1114 12 23 cbr 210 ------- 0 6.0 67.0 1 1 40.91 34.99 57.27 66.59
+ 61.1114 23 34 cbr 210 ------- 0 6.0 67.0 1 1 57.27 66.59 40.91 98.19
- 61.1114 23 34 cbr 210 ------- 0 6.0 67.0 1 1 57.27 66.59 40.91 98.19
r 61.1239 23 34 cbr 210 ------- 0 6.0 67.0 1 1 57.27 66.60 40.91 98.20
+ 61.1239 34 67 cbr 210 ------- 0 6.0 67.0 1 1 40.91 98.20 27.32 101.46
- 61.1239 34 67 cbr 210 ------- 0 6.0 67.0 1 1 40.91 98.20 27.32 101.46
r 61.1312 34 67 cbr 210 ------- 0 6.0 67.0 1 1 40.91 98.20 27.32 101.46
+ 121.0200 6 5 cbr 210 ------- 0 6.0 67.0 2 2 -106.36 6.72 -73.64 6.72
- 121.0200 6 5 cbr 210 ------- 0 6.0 67.0 2 2 -106.36 6.72 -73.64 6.72
r 121.0353 6 5 cbr 210 ------- 0 6.0 67.0 2 2 -106.36 6.72 -73.64 6.72
+ 121.0353 5 4 cbr 210 ------- 0 6.0 67.0 2 2 -73.64 6.72 -40.91 6.72
- 121.0353 5 4 cbr 210 ------- 0 6.0 67.0 2 2 -73.64 6.72 -40.91 6.72
r 121.0505 5 4 cbr 210 ------- 0 6.0 67.0 2 2 -73.64 6.72 -40.91 6.72
+ 121.0505 4 3 cbr 210 ------- 0 6.0 67.0 2 2 -40.91 6.72 -8.18 6.72
- 121.0505 4 3 cbr 210 ------- 0 6.0 67.0 2 2 -40.91 6.72 -8.18 6.72
r 121.0658 4 3 cbr 210 ------- 0 6.0 67.0 2 2 -40.91 6.73 -8.18 6.73
+ 121.0658 3 2 cbr 210 ------- 0 6.0 67.0 2 2 -8.18 6.73 24.55 6.73
- 121.0658 3 2 cbr 210 ------- 0 6.0 67.0 2 2 -8.18 6.73 24.55 6.73
r 121.0810 3 2 cbr 210 ------- 0 6.0 67.0 2 2 -8.18 6.73 24.55 6.73
+ 121.0810 2 1 cbr 210 ------- 0 6.0 67.0 2 2 24.55 6.73 57.27 6.73
- 121.0810 2 1 cbr 210 ------- 0 6.0 67.0 2 2 24.55 6.73 57.27 6.73
r 121.0963 2 1 cbr 210 ------- 0 6.0 67.0 2 2 24.55 6.73 57.27 6.73
+ 121.0963 1 12 cbr 210 ------- 0 6.0 67.0 2 2 57.27 6.73 40.91 38.33
- 121.0963 1 12 cbr 210 ------- 0 6.0 67.0 2 2 57.27 6.73 40.91 38.33
r 121.1088 1 12 cbr 210 ------- 0 6.0 67.0 2 2 57.27 6.73 40.91 38.33
+ 121.1088 12 23 cbr 210 ------- 0 6.0 67.0 2 2 40.91 38.33 57.27 69.93
- 121.1088 12 23 cbr 210 ------- 0 6.0 67.0 2 2 40.91 38.33 57.27 69.93
r 121.1214 12 23 cbr 210 ------- 0 6.0 67.0 2 2 40.91 38.33 57.27 69.93
+ 121.1214 23 34 cbr 210 ------- 0 6.0 67.0 2 2 57.27 69.93 40.91 101.53
- 121.1214 23 34 cbr 210 ------- 0 6.0 67.0 2 2 57.27 69.93 40.91 101.53
r 121.1339 23 34 cbr 210 ------- 0 6.0 67.0 2 2 57.27 69.93 40.91 101.53
+ 121.1339 34 67 cbr 210 ------- 0 6.0 67.0 2 2 40.91 101.53 27.32 101.46
- 121.1339 34 67 cbr 210 ------- 0 6.0 67.0 2 2 40.91 101.53 27.32 101.46
r 121.1411 34 67 cbr 210 ------- 0 6.0 67.0 2 2 40.91 101.53 27.32 101.46
+ 181.0300 6 5 cbr 210 ------- 0 6.0 67.0 3 3 -106.36 10.06 -73.64 10.06
- 181.0300 6 5 cbr 210 ------- 0 6.0 67.0 3 3 -106.36 10.06 -73.64 10.06
r 181.0453 6 5 cbr 210 ------- 0 6.0 67.0 3 3 -106.36 10.06 -73.64 10.06
+ 181.0453 5 4 cbr 210 ------- 0 6.0 67.0 3 3 -73.64 10.06 -40.91 10.06
- 181.0453 5 4 cbr 210 ------- 0 6.0 67.0 3 3 -73.64 10.06 -40.91 10.06
r 181.0605 5 4 cbr 210 ------- 0 6.0 67.0 3 3 -73.64 10.06 -40.91 10.06
+ 181.0605 4 3 cbr 210 ------- 0 6.0 67.0 3 3 -40.91 10.06 -8.18 10.06
- 181.0605 4 3 cbr 210 ------- 0 6.0 67.0 3 3 -40.91 10.06 -8.18 10.06
r 181.0758 4 3 cbr 210 ------- 0 6.0 67.0 3 3 -40.91 10.06 -8.18 10.06
+ 181.0758 3 2 cbr 210 ------- 0 6.0 67.0 3 3 -8.18 10.06 24.55 10.06
- 181.0758 3 2 cbr 210 ------- 0 6.0 67.0 3 3 -8.18 10.06 24.55 10.06
r 181.0910 3 2 cbr 210 ------- 0 6.0 67.0 3 3 -8.18 10.06 24.55 10.06
+ 181.0910 2 1 cbr 210 ------- 0 6.0 67.0 3 3 24.55 10.06 57.27 10.06
- 181.0910 2 1 cbr 210 ------- 0 6.0 67.0 3 3 24.55 10.06 57.27 10.06
r 181.1063 2 1 cbr 210 ------- 0 6.0 67.0 3 3 24.55 10.06 57.27 10.06
+ 181.1063 1 12 cbr 210 ------- 0 6.0 67.0 3 3 57.27 10.06 40.91 41.66
- 181.1063 1 12 cbr 210 ------- 0 6.0 67.0 3 3 57.27 10.06 40.91 41.66
r 181.1188 1 12 cbr 210 ------- 0 6.0 67.0 3 3 57.27 10.06 40.91 41.66
+ 181.1188 12 23 cbr 210 ------- 0 6.0 67.0 3 3 40.91 41.66 57.27 73.26
- 181.1188 12 23 cbr 210 ------- 0 6.0 67.0 3 3 40.91 41.66 57.27 73.26
r 181.1314 12 23 cbr 210 ------- 0 6.0 67.0 3 3 40.91 41.66 57.27 73.26
+ 181.1314 23 34 cbr 210 ------- 0 6.0 67.0 3 3 57.27 73.26 40.91 104.86
- 181.1314 23 34 cbr 210 ------- 0 6.0 67.0 3 3 57.27 73.26 40.91 104.86
r 181.1439 23 34 cbr 210 ------- 0 6.0 67.0 3 3 57.27 73.26 40.91 104.86
+ 181.1439 34 67 cbr 210 ------- 0 6.0 67.0 3 3 40.91 104.86 27.32 101.46
- 181.1439 34 67 cbr 210 ------- 0 6.0 67.0 3 3 40.91 104.86 27.32 101.46
r 181.1512 34 67 cbr 210 ------- 0 6.0 67.0 3 3 40.91 104.86 27.32 101.46
+ 241.0400 6 5 cbr 210 ------- 0 6.0 67.0 4 4 -106.36 13.39 -73.64 13.39
- 241.0400 6 5 cbr 210 ------- 0 6.0 67.0 4 4 -106.36 13.39 -73.64 13.39
r 241.0553 6 5 cbr 210 ------- 0 6.0 67.0 4 4 -106.36 13.39 -73.64 13.39
+ 241.0553 5 4 cbr 210 ------- 0 6.0 67.0 4 4 -73.64 13.39 -40.91 13.39
- 241.0553 5 4 cbr 210 ------- 0 6.0 67.0 4 4 -73.64 13.39 -40.91 13.39
r 241.0705 5 4 cbr 210 ------- 0 6.0 67.0 4 4 -73.64 13.39 -40.91 13.39
+ 241.0705 4 3 cbr 210 ------- 0 6.0 67.0 4 4 -40.91 13.39 -8.18 13.39
- 241.0705 4 3 cbr 210 ------- 0 6.0 67.0 4 4 -40.91 13.39 -8.18 13.39
r 241.0858 4 3 cbr 210 ------- 0 6.0 67.0 4 4 -40.91 13.39 -8.18 13.39
+ 241.0858 3 2 cbr 210 ------- 0 6.0 67.0 4 4 -8.18 13.39 24.55 13.39
- 241.0858 3 2 cbr 210 ------- 0 6.0 67.0 4 4 -8.18 13.39 24.55 13.39
r 241.1010 3 2 cbr 210 ------- 0 6.0 67.0 4 4 -8.18 13.39 24.55 13.39
+ 241.1010 2 1 cbr 210 ------- 0 6.0 67.0 4 4 24.55 13.39 57.27 13.39
- 241.1010 2 1 cbr 210 ------- 0 6.0 67.0 4 4 24.55 13.39 57.27 13.39
r 241.1163 2 1 cbr 210 ------- 0 6.0 67.0 4 4 24.55 13.39 57.27 13.39
+ 241.1163 1 12 cbr 210 ------- 0 6.0 67.0 4 4 57.27 13.39 40.91 44.99
- 241.1163 1 12 cbr 210 ------- 0 6.0 67.0 4 4 57.27 13.39 40.91 44.99
r 241.1288 1 12 cbr 210 ------- 0 6.0 67.0 4 4 57.27 13.40 40.91 45.00
+ 241.1288 12 23 cbr 210 ------- 0 6.0 67.0 4 4 40.91 45.00 57.27 76.60
- 241.1288 12 23 cbr 210 ------- 0 6.0 67.0 4 4 40.91 45.00 57.27 76.60
r 241.1414 12 23 cbr 210 ------- 0 6.0 67.0 4 4 40.91 45.00 57.27 76.60
+ 241.1414 23 34 cbr 210 ------- 0 6.0 67.0 4 4 57.27 76.60 40.91 108.20
- 241.1414 23 34 cbr 210 ------- 0 6.0 67.0 4 4 57.27 76.60 40.91 108.20
r 241.1539 23 34 cbr 210 ------- 0 6.0 67.0 4 4 57.27 76.60 40.91 108.20
+ 241.1539 34 67 cbr 210 ------- 0 6.0 67.0 4 4 40.91 108.20 27.32 101.46
- 241.1539 34 67 cbr 210 ------- 0 6.0 67.0 4 4 40.91 108.20 27.32 101.46
r 241.1615 34 67 cbr 210 ------- 0 6.0 67.0 4 4 40.91 108.20 27.32 101.46
+ 301.0500 6 5 cbr 210 ------- 0 6.0 67.0 5 5 -106.36 16.72 -73.64 16.72
- 301.0500 6 5 cbr 210 ------- 0 6.0 67.0 5 5 -106.36 16.72 -73.64 16.72
r 301.0653 6 5 cbr 210 ------- 0 6.0 67.0 5 5 -106.36 16.73 -73.64 16.73
+ 301.0653 5 4 cbr 210 ------- 0 6.0 67.0 5 5 -73.64 16.73 -40.91 16.73
- 301.0653 5 4 cbr 210 ------- 0 6.0 67.0 5 5 -73.64 16.73 -40.91 16.73
r 301.0805 5 4 cbr 210 ------- 0 6.0 67.0 5 5 -73.64 16.73 -40.91 16.73
+ 301.0805 4 3 cbr 210 ------- 0 6.0 67.0 5 5 -40.91 16.73 -8.18 16.73
- 301.0805 4 3 cbr 210 ------- 0 6.0 67.0 5 5 -40.91 16.73 -8.18 16.73
r 301.0958 4 3 cbr 210 ------- 0 6.0 67.0 5 5 -40.91 16.73 -8.18 16.73
+ 301.0958 3 2 cbr 210 ------- 0 6.0 67.0 5 5 -8.18 16.73 24.55 16.73
- 301.0958 3 2 cbr 210 ------- 0 6.0 67.0 5 5 -8.18 16.73 24.55 16.73
r 301.1110 3 2 cbr 210 ------- 0 6.0 67.0 5 5 -8.18 16.73 24.55 16.73
+ 301.1110 2 1 cbr 210 ------- 0 6.0 67.0 5 5 24.55 16.73 57.27 16.73
- 301.1110 2 1 cbr 210 ------- 0 6.0 67.0 5 5 24.55 16.73 57.27 16.73
r 301.1263 2 1 cbr 210 ------- 0 6.0 67.0 5 5 24.55 16.73 57.27 16.73
+ 301.1263 1 12 cbr 210 ------- 0 6.0 67.0 5 5 57.27 16.73 40.91 48.33
- 301.1263 1 12 cbr 210 ------- 0 6.0 67.0 5 5 57.27 16.73 40.91 48.33
r 301.1388 1 12 cbr 210 ------- 0 6.0 67.0 5 5 57.27 16.73 40.91 48.33
+ 301.1388 12 23 cbr 210 ------- 0 6.0 67.0 5 5 40.91 48.33 57.27 79.93
- 301.1388 12 23 cbr 210 ------- 0 6.0 67.0 5 5 40.91 48.33 57.27 79.93
r 301.1514 12 23 cbr 210 ------- 0 6.0 67.0 5 5 40.91 48.33 57.27 79.93
+ 301.1514 23 34 cbr 210 ------- 0 6.0 67.0 5 5 57.27 79.93 40.91 111.53
- 301.1514 23 34 cbr 210 ------- 0 6.0 67.0 5 5 57.27 79.93 40.91 111.53
r 301.1639 23 34 cbr 210 ------- 0 6.0 67.0 5 5 57.27 79.93 40.91 111.53
+ 301.1639 34 67 cbr 210 ------- 0 6.0 67.0 5 5 40.91 111.53 27.32 101.46
- 301.1639 34 67 cbr 210 ------- 0 6.0 67.0 5 5 40.91 111.53 27.32 101.46
r 301.1719 34 67 cbr 210 ------- 0 6.0 67.0 5 5 40.91 111.53 27.32 101.46
+ 361.0600 6 5 cbr 210 ------- 0 6.0 67.0 6 6 -106.36 20.06 -73.64 20.06
- 361.0600 6 5 cbr 210 ------- 0 6.0 67.0 6 6 -106.36 20.06 -73.64 20.06
r 361.0753 6 5 cbr 210 ------- 0 6.0 67.0 6 6 -106.36 20.06 -73.64 20.06
+ 361.0753 5 4 cbr 210 ------- 0 6.0 67.0 6 6 -73.64 20.06 -40.91 20.06
- 361.0753 5 4 cbr 210 ------- 0 6.0 67.0 6 6 -73.64 20.06 -40.91 20.06
r 361.0905 5 4 cbr 210 ------- 0 6.0 67.0 6 6 -73.64 20.06 -40.91 20.06
+ 361.0905 4 3 cbr 210 ------- 0 6.0 67.0 6 6 -40.91 20.06 -8.18 20.06
- 361.0905 4 3 cbr 210 ------- 0 6.0 67.0 6 6 -40.91 20.06 -8.18 20.06
r 361.1058 4 3 cbr 210 ------- 0 6.0 67.0 6 6 -40.91 20.06 -8.18 20.06
+ 361.1058 3 2 cbr 210 ------- 0 6.0 67.0 6 6 -8.18 20.06 24.55 20.06
- 361.1058 3 2 cbr 210 ------- 0 6.0 67.0 6 6 -8.18 20.06 24.55 20.06
r 361.1210 3 2 cbr 210 ------- 0 6.0 67.0 6 6 -8.18 20.06 24.55 20.06
+ 361.1210 2 1 cbr 210 ------- 0 6.0 67.0 6 6 24.55 20.06 57.27 20.06
- 361.1210 2 1 cbr 210 ------- 0 6.0 67.0 6 6 24.55 20.06 57.27 20.06
r 361.1363 2 1 cbr 210 ------- 0 6.0 67.0 6 6 24.55 20.06 57.27 20.06
+ 361.1363 1 12 cbr 210 ------- 0 6.0 67.0 6 6 57.27 20.06 40.91 51.66
- 361.1363 1 12 cbr 210 ------- 0 6.0 67.0 6 6 57.27 20.06 40.91 51.66
r 361.1488 1 12 cbr 210 ------- 0 6.0 67.0 6 6 57.27 20.06 40.91 51.66
+ 361.1488 12 23 cbr 210 ------- 0 6.0 67.0 6 6 40.91 51.66 57.27 83.26
- 361.1488 12 23 cbr 210 ------- 0 6.0 67.0 6 6 40.91 51.66 57.27 83.26
r 361.1614 12 23 cbr 210 ------- 0 6.0 67.0 6 6 40.91 51.66 57.27 83.26
+ 361.1614 23 34 cbr 210 ------- 0 6.0 67.0 6 6 57.27 83.26 40.91 114.86
- 361.1614 23 34 cbr 210 ------- 0 6.0 67.0 6 6 57.27 83.26 40.91 114.86
r 361.1739 23 34 cbr 210 ------- 0 6.0 67.0 6 6 57.27 83.26 40.91 114.86
+ 361.1739 34 67 cbr 210 ------- 0 6.0 67.0 6 6 40.91 114.86 27.32 101.46
- 361.1739 34 67 cbr 210 ------- 0 6.0 67.0 6 6 40.91 114.86 27.32 101.46
r 361.1825 34 67 cbr 210 ------- 0 6.0 67.0 6 6 40.91 114.86 27.32 101.46
+ 421.0700 6 5 cbr 210 ------- 0 6.0 67.0 7 7 -106.36 23.39 -73.64 23.39
- 421.0700 6 5 cbr 210 ------- 0 6.0 67.0 7 7 -106.36 23.39 -73.64 23.39
r 421.0853 6 5 cbr 210 ------- 0 6.0 67.0 7 7 -106.36 23.39 -73.64 23.39
+ 421.0853 5 4 cbr 210 ------- 0 6.0 67.0 7 7 -73.64 23.39 -40.91 23.39
- 421.0853 5 4 cbr 210 ------- 0 6.0 67.0 7 7 -73.64 23.39 -40.91 23.39
r 421.1005 5 4 cbr 210 ------- 0 6.0 67.0 7 7 -73.64 23.39 -40.91 23.39
+ 421.1005 4 3 cbr 210 ------- 0 6.0 67.0 7 7 -40.91 23.39 -8.18 23.39
- 421.1005 4 3 cbr 210 ------- 0 6.0 67.0 7 7 -40.91 23.39 -8.18 23.39
r 421.1158 4 3 cbr 210 ------- 0 6.0 67.0 7 7 -40.91 23.39 -8.18 23.39
+ 421.1158 3 2 cbr 210 ------- 0 6.0 67.0 7 7 -8.18 23.39 24.55 23.39
- 421.1158 3 2 cbr 210 ------- 0 6.0 67.0 7 7 -8.18 23.39 24.55 23.39
r 421.1310 3 2 cbr 210 ------- 0 6.0 67.0 7 7 -8.18 23.40 24.55 23.40
+ 421.1310 2 1 cbr 210 ------- 0 6.0 67.0 7 7 24.55 23.40 57.27 23.40
- 421.1310 2 1 cbr 210 ------- 0 6.0 67.0 7 7 24.55 23.40 57.27 23.40
r 421.1463 2 1 cbr 210 ------- 0 6.0 67.0 7 7 24.55 23.40 57.27 23.40
+ 421.1463 1 12 cbr 210 ------- 0 6.0 67.0 7 7 57.27 23.40 40.91 55.00
- 421.1463 1 12 cbr 210 ------- 0 6.0 67.0 7 7 57.27 23.40 40.91 55.00
r 421.1588 1 12 cbr 210 ------- 0 6.0 67.0 7 7 57.27 23.40 40.91 55.00
+ 421.1588 12 23 cbr 210 ------- 0 6.0 67.0 7 7 40.91 55.00 57.27 86.60
- 421.1588 12 23 cbr 210 ------- 0 6.0 67.0 7 7 40.91 55.00 57.27 86.60
r 421.1714 12 23 cbr 210 ------- 0 6.0 67.0 7 7 40.91 55.00 57.27 86.60
+ 421.1714 23 34 cbr 210 ------- 0 6.0 67.0 7 7 57.27 86.60 40.91 118.20
- 421.1714 23 34 cbr 210 ------- 0 6.0 67.0 7 7 57.27 86.60 40.91 118.20
r 421.1839 23 34 cbr 210 ------- 0 6.0 67.0 7 7 57.27 86.60 40.91 118.20
+ 421.1839 34 67 cbr 210 ------- 0 6.0 67.0 7 7 40.91 118.20 27.32 101.46
- 421.1839 34 67 cbr 210 ------- 0 6.0 67.0 7 7 40.91 118.20 27.32 101.46
r 421.1931 34 67 cbr 210 ------- 0 6.0 67.0 7 7 40.91 118.20 27.32 101.46
+ 481.0800 6 5 cbr 210 ------- 0 6.0 67.0 8 8 -106.36 26.73 -73.64 26.73
- 481.0800 6 5 cbr 210 ------- 0 6.0 67.0 8 8 -106.36 26.73 -73.64 26.73
r 481.0953 6 5 cbr 210 ------- 0 6.0 67.0 8 8 -106.36 26.73 -73.64 26.73
+ 481.0953 5 4 cbr 210 ------- 0 6.0 67.0 8 8 -73.64 26.73 -40.91 26.73
- 481.0953 5 4 cbr 210 ------- 0 6.0 67.0 8 8 -73.64 26.73 -40.91 26.73
r 481.1105 5 4 cbr 210 ------- 0 6.0 67.0 8 8 -73.64 26.73 -40.91 26.73
+ 481.1105 4 3 cbr 210 ------- 0 6.0 67.0 8 8 -40.91 26.73 -8.18 26.73
- 481.1105 4 3 cbr 210 ------- 0 6.0 67.0 8 8 -40.91 26.73 -8.18 26.73
r 481.1258 4 3 cbr 210 ------- 0 6.0 67.0 8 8 -40.91 26.73 -8.18 26.73
+ 481.1258 3 2 cbr 210 ------- 0 6.0 67.0 8 8 -8.18 26.73 24.55 26.73
- 481.1258 3 2 cbr 210 ------- 0 6.0 67.0 8 8 -8.18 26.73 24.55 26.73
r 481.1410 3 2 cbr 210 ------- 0 6.0 67.0 8 8 -8.18 26.73 24.55 26.73
+ 481.1410 2 1 cbr 210 ------- 0 6.0 67.0 8 8 24.55 26.73 57.27 26.73
- 481.1410 2 1 cbr 210 ------- 0 6.0 67.0 8 8 24.55 26.73 57.27 26.73
r 481.1563 2 1 cbr 210 ------- 0 6.0 67.0 8 8 24.55 26.73 57.27 26.73
+ 481.1563 1 12 cbr 210 ------- 0 6.0 67.0 8 8 57.27 26.73 40.91 58.33
- 481.1563 1 12 cbr 210 ------- 0 6.0 67.0 8 8 57.27 26.73 40.91 58.33
r 481.1688 1 12 cbr 210 ------- 0 6.0 67.0 8 8 57.27 26.73 40.91 58.33
+ 481.1688 12 23 cbr 210 ------- 0 6.0 67.0 8 8 40.91 58.33 57.27 89.93
- 481.1688 12 23 cbr 210 ------- 0 6.0 67.0 8 8 40.91 58.33 57.27 89.93
r 481.1814 12 23 cbr 210 ------- 0 6.0 67.0 8 8 40.91 58.33 57.27 89.93
+ 481.1814 23 34 cbr 210 ------- 0 6.0 67.0 8 8 57.27 89.93 40.91 121.53
- 481.1814 23 34 cbr 210 ------- 0 6.0 67.0 8 8 57.27 89.93 40.91 121.53
r 481.1939 23 34 cbr 210 ------- 0 6.0 67.0 8 8 57.27 89.93 40.91 121.53
+ 481.1939 34 67 cbr 210 ------- 0 6.0 67.0 8 8 40.91 121.53 27.32 101.46
- 481.1939 34 67 cbr 210 ------- 0 6.0 67.0 8 8 40.91 121.53 27.32 101.46
r 481.2039 34 67 cbr 210 ------- 0 6.0 67.0 8 8 40.91 121.53 27.32 101.46
+ 541.0900 6 5 cbr 210 ------- 0 6.0 67.0 9 9 -106.36 30.06 -73.64 30.06
- 541.0900 6 5 cbr 210 ------- 0 6.0 67.0 9 9 -106.36 30.06 -73.64 30.06
r 541.1053 6 5 cbr 210 ------- 0 6.0 67.0 9 9 -106.36 30.06 -73.64 30.06
+ 541.1053 5 4 cbr 210 ------- 0 6.0 67.0 9 9 -73.64 30.06 -40.91 30.06
- 541.1053 5 4 cbr 210 ------- 0 6.0 67.0 9 9 -73.64 30.06 -40.91 30.06
r 541.1205 5 4 cbr 210 ------- 0 6.0 67.0 9 9 -73.64 30.06 -40.91 30.06
+ 541.1205 4 3 cbr 210 ------- 0 6.0 67.0 9 9 -40.91 30.06 -8.18 30.06
- 541.1205 4 3 cbr 210 ------- 0 6.0 67.0 9 9 -40.91 30.06 -8.18 30.06
r 541.1358 4 3 cbr 210 ------- 0 6.0 67.0 9 9 -40.91 30.06 -8.18 30.06
+ 541.1358 3 2 cbr 210 ------- 0 6.0 67.0 9 9 -8.18 30.06 24.55 30.06
- 541.1358 3 2 cbr 210 ------- 0 6.0 67.0 9 9 -8.18 30.06 24.55 30.06
r 541.1510 3 2 cbr 210 ------- 0 6.0 67.0 9 9 -8.18 30.06 24.55 30.06
+ 541.1510 2 13 cbr 210 ------- 0 6.0 67.0 9 9 24.55 30.06 8.18 61.66
- 541.1510 2 13 cbr 210 ------- 0 6.0 67.0 9 9 24.55 30.06 8.18 61.66
r 541.1669 2 13 cbr 210 ------- 0 6.0 67.0 9 9 24.55 30.06 8.18 61.66
+ 541.1669 13 24 cbr 210 ------- 0 6.0 67.0 9 9 8.18 61.66 24.55 93.26
- 541.1669 13 24 cbr 210 ------- 0 6.0 67.0 9 9 8.18 61.66 24.55 93.26
r 541.1828 13 24 cbr 210 ------- 0 6.0 67.0 9 9 8.18 61.66 24.55 93.26
+ 541.1828 24 67 cbr 210 ------- 0 6.0 67.0 9 9 24.55 93.26 27.32 101.46
- 541.1828 24 67 cbr 210 ------- 0 6.0 67.0 9 9 24.55 93.26 27.32 101.46
r 541.1881 24 67 cbr 210 ------- 0 6.0 67.0 9 9 24.55 93.26 27.32 101.46
+ 601.1000 6 5 cbr 210 ------- 0 6.0 67.0 10 10 -106.36 33.39 -73.64 33.39
- 601.1000 6 5 cbr 210 ------- 0 6.0 67.0 10 10 -106.36 33.39 -73.64 33.39
r 601.1153 6 5 cbr 210 ------- 0 6.0 67.0 10 10 -106.36 33.39 -73.64 33.39
+ 601.1153 5 4 cbr 210 ------- 0 6.0 67.0 10 10 -73.64 33.39 -40.91 33.39
- 601.1153 5 4 cbr 210 ------- 0 6.0 67.0 10 10 -73.64 33.39 -40.91 33.39
r 601.1305 5 4 cbr 210 ------- 0 6.0 67.0 10 10 -73.64 33.39 -40.91 33.39
+ 601.1305 4 3 cbr 210 ------- 0 6.0 67.0 10 10 -40.91 33.39 -8.18 33.39
- 601.1305 4 3 cbr 210 ------- 0 6.0 67.0 10 10 -40.91 33.39 -8.18 33.39
r 601.1458 4 3 cbr 210 ------- 0 6.0 67.0 10 10 -40.91 33.40 -8.18 33.40
+ 601.1458 3 2 cbr 210 ------- 0 6.0 67.0 10 10 -8.18 33.40 24.55 33.40
- 601.1458 3 2 cbr 210 ------- 0 6.0 67.0 10 10 -8.18 33.40 24.55 33.40
r 601.1610 3 2 cbr 210 ------- 0 6.0 67.0 10 10 -8.18 33.40 24.55 33.40
+ 601.1610 2 13 cbr 210 ------- 0 6.0 67.0 10 10 24.55 33.40 8.18 65.00
- 601.1610 2 13 cbr 210 ------- 0 6.0 67.0 10 10 24.55 33.40 8.18 65.00
r 601.1769 2 13 cbr 210 ------- 0 6.0 67.0 10 10 24.55 33.40 8.18 65.00
+ 601.1769 13 24 cbr 210 ------- 0 6.0 67.0 10 10 8.18 65.00 24.55 96.60
- 601.1769 13 24 cbr 210 ------- 0 6.0 67.0 10 10 8.18 65.00 24.55 96.60
r 601.1928 13 24 cbr 210 ------- 0 6.0 67.0 10 10 8.18 65.00 24.55 96.60
+ 601.1928 24 67 cbr 210 ------- 0 6.0 67.0 10 10 24.55 96.60 27.32 101.46
- 601.1928 24 67 cbr 210 ------- 0 6.0 67.0 10 10 24.55 96.60 27.32 101.46
r 601.1973 24 67 cbr 210 ------- 0 6.0 67.0 10 10 24.55 96.60 27.32 101.46
+ 661.1100 6 5 cbr 210 ------- 0 6.0 67.0 11 11 -106.36 36.73 -73.64 36.73
- 661.1100 6 5 cbr 210 ------- 0 6.0 67.0 11 11 -106.36 36.73 -73.64 36.73
r 661.1253 6 5 cbr 210 ------- 0 6.0 67.0 11 11 -106.36 36.73 -73.64 36.73
+ 661.1253 5 4 cbr 210 ------- 0 6.0 67.0 11 11 -73.64 36.73 -40.91 36.73
- 661.1253 5 4 cbr 210 ------- 0 6.0 67.0 11 11 -73.64 36.73 -40.91 36.73
r 661.1405 5 4 cbr 210 ------- 0 6.0 67.0 11 11 -73.64 36.73 -40.91 36.73
+ 661.1405 4 3 cbr 210 ------- 0 6.0 67.0 11 11 -40.91 36.73 -8.18 36.73
- 661.1405 4 3 cbr 210 ------- 0 6.0 67.0 11 11 -40.91 36.73 -8.18 36.73
r 661.1558 4 3 cbr 210 ------- 0 6.0 67.0 11 11 -40.91 36.73 -8.18 36.73
+ 661.1558 3 2 cbr 210 ------- 0 6.0 67.0 11 11 -8.18 36.73 24.55 36.73
- 661.1558 3 2 cbr 210 ------- 0 6.0 67.0 11 11 -8.18 36.73 24.55 36.73
r 661.1710 3 2 cbr 210 ------- 0 6.0 67.0 11 11 -8.18 36.73 24.55 36.73
+ 661.1710 2 13 cbr 210 ------- 0 6.0 67.0 11 11 24.55 36.73 8.18 68.33
- 661.1710 2 13 cbr 210 ------- 0 6.0 67.0 11 11 24.55 36.73 8.18 68.33
r 661.1869 2 13 cbr 210 ------- 0 6.0 67.0 11 11 24.55 36.73 8.18 68.33
+ 661.1869 13 24 cbr 210 ------- 0 6.0 67.0 11 11 8.18 68.33 24.55 99.93
- 661.1869 13 24 cbr 210 ------- 0 6.0 67.0 11 11 8.18 68.33 24.55 99.93
r 661.2028 13 24 cbr 210 ------- 0 6.0 67.0 11 11 8.18 68.33 24.55 99.93
+ 661.2028 24 67 cbr 210 ------- 0 6.0 67.0 11 11 24.55 99.93 27.32 101.46
- 661.2028 24 67 cbr 210 ------- 0 6.0 67.0 11 11 24.55 99.93 27.32 101.46
r 661.2069 24 67 cbr 210 ------- 0 6.0 67.0 11 11 24.55 99.93 27.32 101.46
+ 721.1200 6 5 cbr 210 ------- 0 6.0 67.0 12 12 -106.36 40.06 -73.64 40.06
- 721.1200 6 5 cbr 210 ------- 0 6.0 67.0 12 12 -106.36 40.06 -73.64 40.06
r 721.1353 6 5 cbr 210 ------- 0 6.0 67.0 12 12 -106.36 40.06 -73.64 40.06
+ 721.1353 5 4 cbr 210 ------- 0 6.0 67.0 12 12 -73.64 40.06 -40.91 40.06
- 721.1353 5 4 cbr 210 ------- 0 6.0 67.0 12 12 -73.64 40.06 -40.91 40.06
r 721.1505 5 4 cbr 210 ------- 0 6.0 67.0 12 12 -73.64 40.06 -40.91 40.06
+ 721.1505 4 3 cbr 210 ------- 0 6.0 67.0 12 12 -40.91 40.06 -8.18 40.06
- 721.1505 4 3 cbr 210 ------- 0 6.0 67.0 12 12 -40.91 40.06 -8.18 40.06
r 721.1658 4 3 cbr 210 ------- 0 6.0 67.0 12 12 -40.91 40.06 -8.18 40.06
+ 721.1658 3 2 cbr 210 ------- 0 6.0 67.0 12 12 -8.18 40.06 24.55 40.06
- 721.1658 3 2 cbr 210 ------- 0 6.0 67.0 12 12 -8.18 40.06 24.55 40.06
r 721.1810 3 2 cbr 210 ------- 0 6.0 67.0 12 12 -8.18 40.06 24.55 40.06
+ 721.1810 2 13 cbr 210 ------- 0 6.0 67.0 12 12 24.55 40.06 8.18 71.66
- 721.1810 2 13 cbr 210 ------- 0 6.0 67.0 12 12 24.55 40.06 8.18 71.66
r 721.1969 2 13 cbr 210 ------- 0 6.0 67.0 12 12 24.55 40.07 8.18 71.67
+ 721.1969 13 24 cbr 210 ------- 0 6.0 67.0 12 12 8.18 71.67 24.55 103.27
- 721.1969 13 24 cbr 210 ------- 0 6.0 67.0 12 12 8.18 71.67 24.55 103.27
r 721.2128 13 24 cbr 210 ------- 0 6.0 67.0 12 12 8.18 71.67 24.55 103.27
+ 721.2128 24 67 cbr 210 ------- 0 6.0 67.0 12 12 24.55 103.27 27.32 101.46
- 721.2128 24 67 cbr 210 ------- 0 6.0 67.0 12 12 24.55 103.27 27.32 101.46
r 721.2169 24 67 cbr 210 ------- 0 6.0 67.0 12 12 24.55 103.27 27.32 101.46
+ 781.1300 6 5 cbr 210 ------- 0 6.0 67.0 13 13 -106.36 43.39 -73.64 43.39
- 781.1300 6 5 cbr 210 ------- 0 6.0 67.0 13 13 -106.36 43.39 -73.64 43.39
r 781.1453 6 5 cbr 210 ------- 0 6.0 67.0 13 13 -106.36 43.40 -73.64 43.40
+ 781.1453 5 4 cbr 210 ------- 0 6.0 67.0 13 13 -73.64 43.40 -40.91 43.40
- 781.1453 5 4 cbr 210 ------- 0 6.0 67.0 13 13 -73.64 43.40 -40.91 43.40
r 781.1605 5 4 cbr 210 ------- 0 6.0 67.0 13 13 -73.64 43.40 -40.91 43.40
+ 781.1605 4 3 cbr 210 ------- 0 6.0 67.0 13 13 -40.91 43.40 -8.18 43.40
- 781.1605 4 3 cbr 210 ------- 0 6.0 67.0 13 13 -40.91 43.40 -8.18 43.40
r 781.1758 4 3 cbr 210 ------- 0 6.0 67.0 13 13 -40.91 43.40 -8.18 43.40
+ 781.1758 3 2 cbr 210 ------- 0 6.0 67.0 13 13 -8.18 43.40 24.55 43.40
- 781.1758 3 2 cbr 210 ------- 0 6.0 67.0 13 13 -8.18 43.40 24.55 43.40
r 781.1910 3 2 cbr 210 ------- 0 6.0 67.0 13 13 -8.18 43.40 24.55 43.40
+ 781.1910 2 13 cbr 210 ------- 0 6.0 67.0 13 13 24.55 43.40 8.18 75.00
- 781.1910 2 13 cbr 210 ------- 0 6.0 67.0 13 13 24.55 43.40 8.18 75.00
r 781.2069 2 13 cbr 210 ------- 0 6.0 67.0 13 13 24.55 43.40 8.18 75.00
+ 781.2069 13 24 cbr 210 ------- 0 6.0 67.0 13 13 8.18 75.00 24.55 106.60
- 781.2069 13 24 cbr 210 ------- 0 6.0 67.0 13 13 8.18 75.00 24.55 106.60
r 781.2228 13 24 cbr 210 ------- 0 6.0 67.0 13 13 8.18 75.00 24.55 106.60
+ 781.2228 24 67 cbr 210 ------- 0 6.0 67.0 13 13 24.55 106.60 27.32 101.46
- 781.2228 24 67 cbr 210 ------- 0 6.0 67.0 13 13 24.55 106.60 27.32 101.46
r 781.2274 24 67 cbr 210 ------- 0 6.0 67.0 13 13 24.55 106.60 27.32 101.46
+ 841.1400 6 5 cbr 210 ------- 0 6.0 67.0 14 14 -106.36 46.73 -73.64 46.73
- 841.1400 6 5 cbr 210 ------- 0 6.0 67.0 14 14 -106.36 46.73 -73.64 46.73
r 841.1553 6 5 cbr 210 ------- 0 6.0 67.0 14 14 -106.36 46.73 -73.64 46.73
+ 841.1553 5 4 cbr 210 ------- 0 6.0 67.0 14 14 -73.64 46.73 -40.91 46.73
- 841.1553 5 4 cbr 210 ------- 0 6.0 67.0 14 14 -73.64 46.73 -40.91 46.73
r 841.1705 5 4 cbr 210 ------- 0 6.0 67.0 14 14 -73.64 46.73 -40.91 46.73
+ 841.1705 4 3 cbr 210 ------- 0 6.0 67.0 14 14 -40.91 46.73 -8.18 46.73
- 841.1705 4 3 cbr 210 ------- 0 6.0 67.0 14 14 -40.91 46.73 -8.18 46.73
r 841.1858 4 3 cbr 210 ------- 0 6.0 67.0 14 14 -40.91 46.73 -8.18 46.73
+ 841.1858 3 2 cbr 210 ------- 0 6.0 67.0 14 14 -8.18 46.73 24.55 46.73
- 841.1858 3 2 cbr 210 ------- 0 6.0 67.0 14 14 -8.18 46.73 24.55 46.73
r 841.2010 3 2 cbr 210 ------- 0 6.0 67.0 14 14 -8.18 46.73 24.55 46.73
+ 841.2010 2 13 cbr 210 ------- 0 6.0 67.0 14 14 24.55 46.73 8.18 78.33
- 841.2010 2 13 cbr 210 ------- 0 6.0 67.0 14 14 24.55 46.73 8.18 78.33
r 841.2169 2 13 cbr 210 ------- 0 6.0 67.0 14 14 24.55 46.73 8.18 78.33
+ 841.2169 13 24 cbr 210 ------- 0 6.0 67.0 14 14 8.18 78.33 24.55 109.93
- 841.2169 13 24 cbr 210 ------- 0 6.0 67.0 14 14 8.18 78.33 24.55 109.93
r 841.2328 13 24 cbr 210 ------- 0 6.0 67.0 14 14 8.18 78.33 24.55 109.93
+ 841.2328 24 67 cbr 210 ------- 0 6.0 67.0 14 14 24.55 109.93 27.32 101.46
- 841.2328 24 67 cbr 210 ------- 0 6.0 67.0 14 14 24.55 109.93 27.32 101.46
r 841.2382 24 67 cbr 210 ------- 0 6.0 67.0 14 14 24.55 109.93 27.32 101.46
+ 901.1500 6 5 cbr 210 ------- 0 6.0 67.0 15 15 -106.36 50.06 -73.64 50.06
- 901.1500 6 5 cbr 210 ------- 0 6.0 67.0 15 15 -106.36 50.06 -73.64 50.06
r 901.1653 6 5 cbr 210 ------- 0 6.0 67.0 15 15 -106.36 50.06 -73.64 50.06
+ 901.1653 5 4 cbr 210 ------- 0 6.0 67.0 15 15 -73.64 50.06 -40.91 50.06
- 901.1653 5 4 cbr 210 ------- 0 6.0 67.0 15 15 -73.64 50.06 -40.91 50.06
r 901.1805 5 4 cbr 210 ------- 0 6.0 67.0 15 15 -73.64 50.06 -40.91 50.06
+ 901.1805 4 3 cbr 210 ------- 0 6.0 67.0 15 15 -40.91 50.06 -8.18 50.06
- 901.1805 4 3 cbr 210 ------- 0 6.0 67.0 15 15 -40.91 50.06 -8.18 50.06
r 901.1958 4 3 cbr 210 ------- 0 6.0 67.0 15 15 -40.91 50.06 -8.18 50.06
+ 901.1958 3 2 cbr 210 ------- 0 6.0 67.0 15 15 -8.18 50.06 24.55 50.06
- 901.1958 3 2 cbr 210 ------- 0 6.0 67.0 15 15 -8.18 50.06 24.55 50.06
r 901.2110 3 2 cbr 210 ------- 0 6.0 67.0 15 15 -8.18 50.07 24.55 50.07
+ 901.2110 2 13 cbr 210 ------- 0 6.0 67.0 15 15 24.55 50.07 8.18 81.67
- 901.2110 2 13 cbr 210 ------- 0 6.0 67.0 15 15 24.55 50.07 8.18 81.67
r 901.2269 2 13 cbr 210 ------- 0 6.0 67.0 15 15 24.55 50.07 8.18 81.67
+ 901.2269 13 24 cbr 210 ------- 0 6.0 67.0 15 15 8.18 81.67 24.55 113.27
- 901.2269 13 24 cbr 210 ------- 0 6.0 67.0 15 15 8.18 81.67 24.55 113.27
r 901.2428 13 24 cbr 210 ------- 0 6.0 67.0 15 15 8.18 81.67 24.55 113.27
+ 901.2428 24 67 cbr 210 ------- 0 6.0 67.0 15 15 24.55 113.27 27.32 101.46
- 901.2428 24 67 cbr 210 ------- 0 6.0 67.0 15 15 24.55 113.27 27.32 101.46
r 901.2491 24 67 cbr 210 ------- 0 6.0 67.0 15 15 24.55 113.27 27.32 101.46
+ 961.1600 6 5 cbr 210 ------- 0 6.0 67.0 16 16 -106.36 53.40 -73.64 53.40
- 961.1600 6 5 cbr 210 ------- 0 6.0 67.0 16 16 -106.36 53.40 -73.64 53.40
r 961.1753 6 5 cbr 210 ------- 0 6.0 67.0 16 16 -106.36 53.40 -73.64 53.40
+ 961.1753 5 4 cbr 210 ------- 0 6.0 67.0 16 16 -73.64 53.40 -40.91 53.40
- 961.1753 5 4 cbr 210 ------- 0 6.0 67.0 16 16 -73.64 53.40 -40.91 53.40
r 961.1905 5 4 cbr 210 ------- 0 6.0 67.0 16 16 -73.64 53.40 -40.91 53.40
+ 961.1905 4 3 cbr 210 ------- 0 6.0 67.0 16 16 -40.91 53.40 -8.18 53.40
- 961.1905 4 3 cbr 210 ------- 0 6.0 67.0 16 16 -40.91 53.40 -8.18 53.40
r 961.2058 4 3 cbr 210 ------- 0 6.0 67.0 16 16 -40.91 53.40 -8.18 53.40
+ 961.2058 3 2 cbr 210 ------- 0 6.0 67.0 16 16 -8.18 53.40 24.55 53.40
- 961.2058 3 2 cbr 210 ------- 0 6.0 67.0 16 16 -8.18 53.40 24.55 53.40
r 961.2210 3 2 cbr 210 ------- 0 6.0 67.0 16 16 -8.18 53.40 24.55 53.40
+ 961.2210 2 13 cbr 210 ------- 0 6.0 67.0 16 16 24.55 53.40 8.18 85.00
- 961.2210 2 13 cbr 210 ------- 0 6.0 67.0 16 16 24.55 53.40 8.18 85.00
r 961.2369 2 13 cbr 210 ------- 0 6.0 67.0 16 16 24.55 53.40 8.18 85.00
+ 961.2369 13 24 cbr 210 ------- 0 6.0 67.0 16 16 8.18 85.00 24.55 116.60
- 961.2369 13 24 cbr 210 ------- 0 6.0 67.0 16 16 8.18 85.00 24.55 116.60
r 961.2528 13 24 cbr 210 ------- 0 6.0 67.0 16 16 8.18 85.00 24.55 116.60
+ 961.2528 24 67 cbr 210 ------- 0 6.0 67.0 16 16 24.55 116.60 27.32 101.46
- 961.2528 24 67 cbr 210 ------- 0 6.0 67.0 16 16 24.55 116.60 27.32 101.46
r 961.2601 24 67 cbr 210 ------- 0 6.0 67.0 16 16 24.55 116.60 27.32 101.46
+ 1021.1700 6 5 cbr 210 ------- 0 6.0 67.0 17 17 -106.36 56.73 -73.64 56.73
- 1021.1700 6 5 cbr 210 ------- 0 6.0 67.0 17 17 -106.36 56.73 -73.64 56.73
r 1021.1853 6 5 cbr 210 ------- 0 6.0 67.0 17 17 -106.36 56.73 -73.64 56.73
+ 1021.1853 5 4 cbr 210 ------- 0 6.0 67.0 17 17 -73.64 56.73 -40.91 56.73
- 1021.1853 5 4 cbr 210 ------- 0 6.0 67.0 17 17 -73.64 56.73 -40.91 56.73
r 1021.2005 5 4 cbr 210 ------- 0 6.0 67.0 17 17 -73.64 56.73 -40.91 56.73
+ 1021.2005 4 3 cbr 210 ------- 0 6.0 67.0 17 17 -40.91 56.73 -8.18 56.73
- 1021.2005 4 3 cbr 210 ------- 0 6.0 67.0 17 17 -40.91 56.73 -8.18 56.73
r 1021.2158 4 3 cbr 210 ------- 0 6.0 67.0 17 17 -40.91 56.73 -8.18 56.73
+ 1021.2158 3 2 cbr 210 ------- 0 6.0 67.0 17 17 -8.18 56.73 24.55 56.73
- 1021.2158 3 2 cbr 210 ------- 0 6.0 67.0 17 17 -8.18 56.73 24.55 56.73
r 1021.2310 3 2 cbr 210 ------- 0 6.0 67.0 17 17 -8.18 56.73 24.55 56.73
+ 1021.2310 2 13 cbr 210 ------- 0 6.0 67.0 17 17 24.55 56.73 8.18 88.33
- 1021.2310 2 13 cbr 210 ------- 0 6.0 67.0 17 17 24.55 56.73 8.18 88.33
r 1021.2469 2 13 cbr 210 ------- 0 6.0 67.0 17 17 24.55 56.73 8.18 88.33
+ 1021.2469 13 24 cbr 210 ------- 0 6.0 67.0 17 17 8.18 88.33 24.55 119.93
- 1021.2469 13 24 cbr 210 ------- 0 6.0 67.0 17 17 8.18 88.33 24.55 119.93
r 1021.2628 13 24 cbr 210 ------- 0 6.0 67.0 17 17 8.18 88.33 24.55 119.93
+ 1021.2628 24 67 cbr 210 ------- 0 6.0 67.0 17 17 24.55 119.93 27.32 101.46
- 1021.2628 24 67 cbr 210 ------- 0 6.0 67.0 17 17 24.55 119.93 27.32 101.46
r 1021.2711 24 67 cbr 210 ------- 0 6.0 67.0 17 17 24.55 119.94 27.32 101.46
+ 1081.1800 6 5 cbr 210 ------- 0 6.0 67.0 18 18 -106.36 60.06 -73.64 60.06
- 1081.1800 6 5 cbr 210 ------- 0 6.0 67.0 18 18 -106.36 60.06 -73.64 60.06
r 1081.1953 6 5 cbr 210 ------- 0 6.0 67.0 18 18 -106.36 60.06 -73.64 60.06
+ 1081.1953 5 4 cbr 210 ------- 0 6.0 67.0 18 18 -73.64 60.06 -40.91 60.06
- 1081.1953 5 4 cbr 210 ------- 0 6.0 67.0 18 18 -73.64 60.06 -40.91 60.06
r 1081.2105 5 4 cbr 210 ------- 0 6.0 67.0 18 18 -73.64 60.07 -40.91 60.07
+ 1081.2105 4 3 cbr 210 ------- 0 6.0 67.0 18 18 -40.91 60.07 -8.18 60.07
- 1081.2105 4 3 cbr 210 ------- 0 6.0 67.0 18 18 -40.91 60.07 -8.18 60.07